                               Psi4 1.4a3.dev225

  ==> Input File <==

--------------------------------------------------------------------------
#psi4
#
memory 32 gb

molecule  {
0 1
  O        2.7820080    -0.8809860    -0.0002600
  C       -0.3718440     0.9737870     0.0000910
  C        0.5129072    -0.1532200    -0.0000608
  C       -1.7466600     0.7087270     0.0002000
  C        0.0166350    -1.4400920    -0.0001140
  C        0.1123110     2.4052290     0.0001630
  C       -2.2387310    -0.5972210     0.0001460
  C       -1.3536090    -1.6782430    -0.0000090
  C        1.9816290     0.0523060    -0.0001740
  H       -2.4458080     1.5430760     0.0003180
  H        0.7339320    -2.2568560    -0.0002320
  H        0.7165080     2.6337130    -0.8832360
  H       -0.7427470     3.0862090     0.0002150
  H        0.7165360     2.6336080     0.8835710
  H       -3.3126640    -0.7693710     0.0002300
  H       -1.7319890    -2.6973870    -0.0000530
  H        2.3545140     1.0932780    -0.0001810
units angstrom
no_reorient  #important for SAPT in psi4, default
symmetry c1  #important for SAPT in psi4, default
}

set PROPERTIES_ORIGIN ["COM"]
properties('MP2/aug-cc-pvtz', properties = ['dipole'])
--------------------------------------------------------------------------

    Molecular point group: c1
  Charge       = 0
  Multiplicity = 1
  Basis Set: AUG-CC-PVTZ
    Blend: AUG-CC-PVTZ
  Basis Set: (AUG-CC-PVTZ AUX)
    Blend: AUG-CC-PVTZ-JKFIT

    Orbital Energies [Eh]
    ---------------------

    Doubly Occupied:

       1A    -20.551692     2A    -11.334691     3A    -11.271605
       4A    -11.257131     5A    -11.250000     6A    -11.248320
       7A    -11.245326     8A    -11.244265     9A    -11.244231
      10A     -1.376918    11A     -1.171378    12A     -1.063636
      13A     -1.042385    14A     -0.954898    15A     -0.889680
      16A     -0.820760    17A     -0.787083    18A     -0.709533
      19A     -0.672159    20A     -0.645531    21A     -0.620325
      22A     -0.608353    23A     -0.597130    24A     -0.584978
      25A     -0.559434    26A     -0.538822    27A     -0.518815
      28A     -0.501009    29A     -0.491493    30A     -0.425957
      31A     -0.351342    32A     -0.339966

  @DF-RHF Final Energy:  -382.59348414434203

   => Energetics <=

    Nuclear Repulsion Energy =            401.9366997180700309
    One-Electron Energy =               -1315.2226804096897013
    Two-Electron Energy =                 530.6924965472776421
    Total Energy =                       -382.5934841443420282
  Basis Set: (AUG-CC-PVTZ AUX)
    Blend: AUG-CC-PVTZ-RI
    Molecular point group: c1

    Geometry (in Angstrom), charge = 0, multiplicity = 1:

       Center              X                  Y                   Z               Mass
    ------------   -----------------  -----------------  -----------------  -----------------
         O            2.751115502169    -0.834936894917    -0.000254874687    15.994914619570
         C           -0.402736497831     1.019836105083     0.000096125313    12.000000000000
         C            0.482014702169    -0.107170894917    -0.000055674687    12.000000000000
         C           -1.777552497831     0.754776105083     0.000205125313    12.000000000000
         C           -0.014257497831    -1.394042894917    -0.000108874687    12.000000000000
         C            0.081418502169     2.451278105083     0.000168125313    12.000000000000
         C           -2.269623497831    -0.551171894917     0.000151125313    12.000000000000
         C           -1.384501497831    -1.632193894917    -0.000003874687    12.000000000000
         C            1.950736502169     0.098355105083    -0.000168874687    12.000000000000
         H           -2.476700497831     1.589125105083     0.000323125313     1.007825032230
         H            0.703039502169    -2.210806894917    -0.000226874687     1.007825032230
         H            0.685615502169     2.679762105083    -0.883230874687     1.007825032230
         H           -0.773639497831     3.132258105083     0.000220125313     1.007825032230
         H            0.685643502169     2.679657105083     0.883576125313     1.007825032230
         H           -3.343556497831    -0.723321894917     0.000235125313     1.007825032230
         H           -1.762881497831    -2.651337894917    -0.000047874687     1.007825032230
         H            2.323621502169     1.139327105083    -0.000175874687     1.007825032230

  Basis Set: AUG-CC-PVTZ
    Blend: AUG-CC-PVTZ
  Basis Set: (AUG-CC-PVTZ AUX)
    Blend: AUG-CC-PVTZ-JKFIT
	 Reference Energy          =    -382.5934841443420282 [Eh]
	 Singles Energy            =      -0.0000000000000000 [Eh]
	 Same-Spin Energy          =      -0.4084585965572325 [Eh]
	 Opposite-Spin Energy      =      -1.2870158767177537 [Eh]
	 Correlation Energy        =      -1.6954744732749862 [Eh]
	 Total Energy              =    -384.2889586176170269 [Eh]

	 ================> DF-SCS-MP2 Energies <==================
	-----------------------------------------------------------
	 SCS Same-Spin Scale       =       0.3333333333333333 [-]
	 SCS Opposite-Spin Scale   =       1.2000000000000000 [-]
	 SCS Same-Spin Energy      =      -0.1361528655190775 [Eh]
	 SCS Opposite-Spin Energy  =      -1.5444190520613044 [Eh]
	 SCS Correlation Energy    =      -1.6805719175803819 [Eh]
	 SCS Total Energy          =    -384.2740560619224084 [Eh]
	-----------------------------------------------------------

  Dipole Moment: [D]
     X:    -2.6943      Y:     1.9033      Z:     0.0003     Total:     3.2988

*** Psi4 exiting successfully. Buy a developer a beer!
