                               Psi4 1.4a3.dev225

  ==> Input File <==

--------------------------------------------------------------------------
#psi4
#
memory 32 gb

molecule  {
0 1
  O        2.7820080    -0.8809860    -0.0002600
  C       -0.3718440     0.9737870     0.0000910
  C        0.5095440    -0.1275560    -0.0000600
  C       -1.7466600     0.7087270     0.0002000
  C        0.0166350    -1.4400920    -0.0001140
  C        0.0482313     2.2157724     0.0001535
  C       -2.2387310    -0.5972210     0.0001460
  C       -1.3536090    -1.6782430    -0.0000090
  C        1.9816290     0.0523060    -0.0001740
  H       -2.4458080     1.5430760     0.0003180
  H        0.7339320    -2.2568560    -0.0002320
  H        0.7165080     2.6337130    -0.8832360
  H       -0.7427470     3.0862090     0.0002150
  H        0.7165360     2.6336080     0.8835710
  H       -3.3126640    -0.7693710     0.0002300
  H       -1.7319890    -2.6973870    -0.0000530
  H        2.3545140     1.0932780    -0.0001810
units angstrom
no_reorient  #important for SAPT in psi4, default
symmetry c1  #important for SAPT in psi4, default
}

set PROPERTIES_ORIGIN ["COM"]
properties('MP2/aug-cc-pvtz', properties = ['dipole'])
--------------------------------------------------------------------------

    Molecular point group: c1
  Charge       = 0
  Multiplicity = 1
  Basis Set: AUG-CC-PVTZ
    Blend: AUG-CC-PVTZ
  Basis Set: (AUG-CC-PVTZ AUX)
    Blend: AUG-CC-PVTZ-JKFIT

    Orbital Energies [Eh]
    ---------------------

    Doubly Occupied:

       1A    -20.552585     2A    -11.334709     3A    -11.258255
       4A    -11.257943     5A    -11.253937     6A    -11.253218
       7A    -11.249119     8A    -11.246373     9A    -11.245224
      10A     -1.377122    11A     -1.185674    12A     -1.090241
      13A     -1.042586    14A     -0.952473    15A     -0.890804
      16A     -0.819117    17A     -0.787394    18A     -0.715890
      19A     -0.680481    20A     -0.658512    21A     -0.625283
      22A     -0.612800    23A     -0.603342    24A     -0.588001
      25A     -0.540680    26A     -0.529105    27A     -0.519241
      28A     -0.492576    29A     -0.484011    30A     -0.423848
      31A     -0.349927    32A     -0.335103

  @DF-RHF Final Energy:  -382.54223450258797

   => Energetics <=

    Nuclear Repulsion Energy =            405.5859203982063264
    One-Electron Energy =               -1322.3451577527280278
    Two-Electron Energy =                 534.2170028519336711
    Total Energy =                       -382.5422345025880304
  Basis Set: (AUG-CC-PVTZ AUX)
    Blend: AUG-CC-PVTZ-RI
    Molecular point group: c1

    Geometry (in Angstrom), charge = 0, multiplicity = 1:

       Center              X                  Y                   Z               Mass
    ------------   -----------------  -----------------  -----------------  -----------------
         O            2.757856561242    -0.818565481583    -0.000254005103    15.994914619570
         C           -0.395995438758     1.036207518417     0.000096994897    12.000000000000
         C            0.485392561242    -0.065135481583    -0.000054005103    12.000000000000
         C           -1.770811438758     0.771147518417     0.000205994897    12.000000000000
         C           -0.007516438758    -1.377671481583    -0.000108005103    12.000000000000
         C            0.024079861242     2.278192918417     0.000159494897    12.000000000000
         C           -2.262882438758    -0.534800481583     0.000151994897    12.000000000000
         C           -1.377760438758    -1.615822481583    -0.000003005103    12.000000000000
         C            1.957477561242     0.114726518417    -0.000168005103    12.000000000000
         H           -2.469959438758     1.605496518417     0.000323994897     1.007825032230
         H            0.709780561242    -2.194435481583    -0.000226005103     1.007825032230
         H            0.692356561242     2.696133518417    -0.883230005103     1.007825032230
         H           -0.766898438758     3.148629518417     0.000220994897     1.007825032230
         H            0.692384561242     2.696028518417     0.883576994897     1.007825032230
         H           -3.336815438758    -0.706950481583     0.000235994897     1.007825032230
         H           -1.756140438758    -2.634966481583    -0.000047005103     1.007825032230
         H            2.330362561242     1.155698518417    -0.000175005103     1.007825032230

  Basis Set: AUG-CC-PVTZ
    Blend: AUG-CC-PVTZ
  Basis Set: (AUG-CC-PVTZ AUX)
    Blend: AUG-CC-PVTZ-JKFIT
	 Reference Energy          =    -382.5422345025879736 [Eh]
	 Singles Energy            =      -0.0000000000000000 [Eh]
	 Same-Spin Energy          =      -0.4121686399166556 [Eh]
	 Opposite-Spin Energy      =      -1.2919306100824546 [Eh]
	 Correlation Energy        =      -1.7040992499991101 [Eh]
	 Total Energy              =    -384.2463337525870770 [Eh]

	 ================> DF-SCS-MP2 Energies <==================
	-----------------------------------------------------------
	 SCS Same-Spin Scale       =       0.3333333333333333 [-]
	 SCS Opposite-Spin Scale   =       1.2000000000000000 [-]
	 SCS Same-Spin Energy      =      -0.1373895466388852 [Eh]
	 SCS Opposite-Spin Energy  =      -1.5503167320989455 [Eh]
	 SCS Correlation Energy    =      -1.6877062787378307 [Eh]
	 SCS Total Energy          =    -384.2299407813258085 [Eh]
	-----------------------------------------------------------

  Dipole Moment: [D]
     X:    -2.7052      Y:     1.8803      Z:     0.0003     Total:     3.2945

*** Psi4 exiting successfully. Buy a developer a beer!
