                               Psi4 1.4a3.dev225

  ==> Input File <==

--------------------------------------------------------------------------
#psi4
#
memory 32 gb

molecule  {
0 1
  O        2.7820080    -0.8809860    -0.0002600
  C       -0.3718440     0.9737870     0.0000910
  C        0.5095440    -0.1275560    -0.0000600
  C       -1.7466600     0.7087270     0.0002000
  C        0.0166350    -1.4400920    -0.0001140
  C        0.1123110     2.4052290     0.0001630
  C       -2.2387310    -0.5972210     0.0001460
  C       -1.3536090    -1.6782430    -0.0000090
  C        1.9816290     0.0523060    -0.0001740
  H       -2.4458080     1.5430760     0.0003180
  H        0.7339320    -2.2568560    -0.0002320
  H        0.7165080     2.6337130    -0.8832360
  H       -0.7427470     3.0862090     0.0002150
  H        0.7165360     2.6336080     0.8835710
  H       -3.5101429    -0.8010266     0.0002454
  H       -1.7319890    -2.6973870    -0.0000530
  H        2.3545140     1.0932780    -0.0001810
units angstrom
no_reorient  #important for SAPT in psi4, default
symmetry c1  #important for SAPT in psi4, default
}

set PROPERTIES_ORIGIN ["COM"]
properties('MP2/aug-cc-pvtz', properties = ['dipole'])
--------------------------------------------------------------------------

    Molecular point group: c1
  Charge       = 0
  Multiplicity = 1
  Basis Set: AUG-CC-PVTZ
    Blend: AUG-CC-PVTZ
  Basis Set: (AUG-CC-PVTZ AUX)
    Blend: AUG-CC-PVTZ-JKFIT

    Orbital Energies [Eh]
    ---------------------

    Doubly Occupied:

       1A    -20.552871     2A    -11.335649     3A    -11.278884
       4A    -11.271703     5A    -11.253900     6A    -11.249773
       7A    -11.247867     8A    -11.246630     9A    -11.244748
      10A     -1.377587    11A     -1.172868    12A     -1.065078
      13A     -1.038528    14A     -0.956487    15A     -0.884650
      16A     -0.822122    17A     -0.782995    18A     -0.706504
      19A     -0.669620    20A     -0.631506    21A     -0.618212
      22A     -0.604940    23A     -0.598493    24A     -0.586726
      25A     -0.557629    26A     -0.539320    27A     -0.504978
      28A     -0.500102    29A     -0.492957    30A     -0.426106
      31A     -0.350257    32A     -0.344131

  @DF-RHF Final Energy:  -382.57202877390802

   => Energetics <=

    Nuclear Repulsion Energy =            401.0472990515780793
    One-Electron Energy =               -1313.4110140569739542
    Two-Electron Energy =                 529.7916862314879154
    Total Energy =                       -382.5720287739079595
  Basis Set: (AUG-CC-PVTZ AUX)
    Blend: AUG-CC-PVTZ-RI
    Molecular point group: c1

    Geometry (in Angstrom), charge = 0, multiplicity = 1:

       Center              X                  Y                   Z               Mass
    ------------   -----------------  -----------------  -----------------  -----------------
         O            2.753109401334    -0.837236331935    -0.000255083924    15.994914619570
         C           -0.400742598666     1.017536668065     0.000095916076    12.000000000000
         C            0.480645401334    -0.083806331935    -0.000055083924    12.000000000000
         C           -1.775558598666     0.752476668065     0.000204916076    12.000000000000
         C           -0.012263598666    -1.396342331935    -0.000109083924    12.000000000000
         C            0.083412401334     2.448978668065     0.000167916076    12.000000000000
         C           -2.267629598666    -0.553471331935     0.000150916076    12.000000000000
         C           -1.382507598666    -1.634493331935    -0.000004083924    12.000000000000
         C            1.952730401334     0.096055668065    -0.000169083924    12.000000000000
         H           -2.474706598666     1.586825668065     0.000322916076     1.007825032230
         H            0.705033401334    -2.213106331935    -0.000227083924     1.007825032230
         H            0.687609401334     2.677462668065    -0.883231083924     1.007825032230
         H           -0.771645598666     3.129958668065     0.000219916076     1.007825032230
         H            0.687637401334     2.677357668065     0.883575916076     1.007825032230
         H           -3.539041498666    -0.757276931935     0.000250316076     1.007825032230
         H           -1.760887598666    -2.653637331935    -0.000048083924     1.007825032230
         H            2.325615401334     1.137027668065    -0.000176083924     1.007825032230

  Basis Set: AUG-CC-PVTZ
    Blend: AUG-CC-PVTZ
  Basis Set: (AUG-CC-PVTZ AUX)
    Blend: AUG-CC-PVTZ-JKFIT
	 Reference Energy          =    -382.5720287739080163 [Eh]
	 Singles Energy            =      -0.0000000000000000 [Eh]
	 Same-Spin Energy          =      -0.4089691502296876 [Eh]
	 Opposite-Spin Energy      =      -1.2892765718736299 [Eh]
	 Correlation Energy        =      -1.6982457221033176 [Eh]
	 Total Energy              =    -384.2702744960113250 [Eh]

	 ================> DF-SCS-MP2 Energies <==================
	-----------------------------------------------------------
	 SCS Same-Spin Scale       =       0.3333333333333333 [-]
	 SCS Opposite-Spin Scale   =       1.2000000000000000 [-]
	 SCS Same-Spin Energy      =      -0.1363230500765625 [Eh]
	 SCS Opposite-Spin Energy  =      -1.5471318862483558 [Eh]
	 SCS Correlation Energy    =      -1.6834549363249183 [Eh]
	 SCS Total Energy          =    -384.2554837102329088 [Eh]
	-----------------------------------------------------------

  Dipole Moment: [D]
     X:    -2.6096      Y:     1.9115      Z:     0.0003     Total:     3.2348

*** Psi4 exiting successfully. Buy a developer a beer!
