                               Psi4 1.4a3.dev225

  ==> Input File <==

--------------------------------------------------------------------------
#psi4
#
memory 32 gb

molecule  {
0 1
  O        2.7820080    -0.8809860    -0.0002600
  C       -0.3718440     0.9737870     0.0000910
  C        0.5095440    -0.1275560    -0.0000600
  C       -1.7466600     0.7087270     0.0002000
  C        0.0166350    -1.4400920    -0.0001140
  C        0.1123110     2.4052290     0.0001630
  C       -2.2387310    -0.5972210     0.0001460
  C       -1.3536090    -1.6782430    -0.0000090
  C        1.9816290     0.0523060    -0.0001740
  H       -2.4458080     1.5430760     0.0003180
  H        0.7339320    -2.2568560    -0.0002320
  H        0.7165080     2.6337130    -0.8832360
  H       -0.8991941     3.2108056     0.0002245
  H        0.7165360     2.6336080     0.8835710
  H       -3.3126640    -0.7693710     0.0002300
  H       -1.7319890    -2.6973870    -0.0000530
  H        2.3545140     1.0932780    -0.0001810
units angstrom
no_reorient  #important for SAPT in psi4, default
symmetry c1  #important for SAPT in psi4, default
}

set PROPERTIES_ORIGIN ["COM"]
properties('MP2/aug-cc-pvtz', properties = ['dipole'])
--------------------------------------------------------------------------

    Molecular point group: c1
  Charge       = 0
  Multiplicity = 1
  Basis Set: AUG-CC-PVTZ
    Blend: AUG-CC-PVTZ
  Basis Set: (AUG-CC-PVTZ AUX)
    Blend: AUG-CC-PVTZ-JKFIT

    Orbital Energies [Eh]
    ---------------------

    Doubly Occupied:

       1A    -20.553398     2A    -11.336339     3A    -11.272179
       4A    -11.266107     5A    -11.257941     6A    -11.253209
       7A    -11.250538     8A    -11.246024     9A    -11.245152
      10A     -1.378081    11A     -1.172697    12A     -1.063885
      13A     -1.039975    14A     -0.946665    15A     -0.891072
      16A     -0.819150    17A     -0.787974    18A     -0.709658
      19A     -0.670829    20A     -0.646048    21A     -0.616987
      22A     -0.610323    23A     -0.600716    24A     -0.587259
      25A     -0.539948    26A     -0.529482    27A     -0.514498
      28A     -0.498734    29A     -0.492472    30A     -0.426492
      31A     -0.349778    32A     -0.343740

  @DF-RHF Final Energy:  -382.57363913164204

   => Energetics <=

    Nuclear Repulsion Energy =            401.1575292244107231
    One-Electron Energy =               -1313.6276338919499267
    Two-Electron Energy =                 529.8964655358971640
    Total Energy =                       -382.5736391316420395
  Basis Set: (AUG-CC-PVTZ AUX)
    Blend: AUG-CC-PVTZ-RI
    Molecular point group: c1

    Geometry (in Angstrom), charge = 0, multiplicity = 1:

       Center              X                  Y                   Z               Mass
    ------------   -----------------  -----------------  -----------------  -----------------
         O            2.752764959129    -0.838547993921    -0.000255034396    15.994914619570
         C           -0.401087040871     1.016225006079     0.000095965604    12.000000000000
         C            0.480300959129    -0.085117993921    -0.000055034396    12.000000000000
         C           -1.775903040871     0.751165006079     0.000204965604    12.000000000000
         C           -0.012608040871    -1.397653993921    -0.000109034396    12.000000000000
         C            0.083067959129     2.447667006079     0.000167965604    12.000000000000
         C           -2.267974040871    -0.554782993921     0.000150965604    12.000000000000
         C           -1.382852040871    -1.635804993921    -0.000004034396    12.000000000000
         C            1.952385959129     0.094744006079    -0.000169034396    12.000000000000
         H           -2.475051040871     1.585514006079     0.000322965604     1.007825032230
         H            0.704688959129    -2.214417993921    -0.000227034396     1.007825032230
         H            0.687264959129     2.676151006079    -0.883231034396     1.007825032230
         H           -0.928437140871     3.253243606079     0.000229465604     1.007825032230
         H            0.687292959129     2.676046006079     0.883575965604     1.007825032230
         H           -3.341907040871    -0.726932993921     0.000234965604     1.007825032230
         H           -1.761232040871    -2.654948993921    -0.000048034396     1.007825032230
         H            2.325270959129     1.135716006079    -0.000176034396     1.007825032230

  Basis Set: AUG-CC-PVTZ
    Blend: AUG-CC-PVTZ
  Basis Set: (AUG-CC-PVTZ AUX)
    Blend: AUG-CC-PVTZ-JKFIT
	 Reference Energy          =    -382.5736391316420395 [Eh]
	 Singles Energy            =      -0.0000000000000000 [Eh]
	 Same-Spin Energy          =      -0.4086436953245786 [Eh]
	 Opposite-Spin Energy      =      -1.2889655327162317 [Eh]
	 Correlation Energy        =      -1.6976092280408102 [Eh]
	 Total Energy              =    -384.2712483596828292 [Eh]

	 ================> DF-SCS-MP2 Energies <==================
	-----------------------------------------------------------
	 SCS Same-Spin Scale       =       0.3333333333333333 [-]
	 SCS Opposite-Spin Scale   =       1.2000000000000000 [-]
	 SCS Same-Spin Energy      =      -0.1362145651081929 [Eh]
	 SCS Opposite-Spin Energy  =      -1.5467586392594781 [Eh]
	 SCS Correlation Energy    =      -1.6829732043676708 [Eh]
	 SCS Total Energy          =    -384.2566123360097095 [Eh]
	-----------------------------------------------------------

  Dipole Moment: [D]
     X:    -2.6523      Y:     1.7552      Z:     0.0003     Total:     3.1805

*** Psi4 exiting successfully. Buy a developer a beer!
