                               Psi4 1.4a3.dev225

  ==> Input File <==

--------------------------------------------------------------------------
#psi4
#
memory 32 gb

molecule  {
0 1
  O        2.7820080    -0.8809860    -0.0002600
  C       -0.3718440     0.9737870     0.0000910
  C        0.5095440    -0.1275560    -0.0000600
  C       -1.7466600     0.7087270     0.0002000
  C        0.0166350    -1.4400920    -0.0001140
  C        0.1123110     2.4052290     0.0001630
  C       -2.2387310    -0.5972210     0.0001460
  C       -1.3536090    -1.6782430    -0.0000090
  C        1.9816290     0.0523060    -0.0001740
  H       -2.4458080     1.5430760     0.0003180
  H        0.7339320    -2.2568560    -0.0002320
  H        0.7165080     2.6337130    -0.8832360
  H       -0.8209705     3.1485073     0.0002198
  H        0.7165360     2.6336080     0.8835710
  H       -3.3126640    -0.7693710     0.0002300
  H       -1.7319890    -2.6973870    -0.0000530
  H        2.3545140     1.0932780    -0.0001810
units angstrom
no_reorient  #important for SAPT in psi4, default
symmetry c1  #important for SAPT in psi4, default
}

set PROPERTIES_ORIGIN ["COM"]
properties('MP2/aug-cc-pvtz', properties = ['dipole'])
--------------------------------------------------------------------------

    Molecular point group: c1
  Charge       = 0
  Multiplicity = 1
  Basis Set: AUG-CC-PVTZ
    Blend: AUG-CC-PVTZ
  Basis Set: (AUG-CC-PVTZ AUX)
    Blend: AUG-CC-PVTZ-JKFIT

    Orbital Energies [Eh]
    ---------------------

    Doubly Occupied:

       1A    -20.552686     2A    -11.335540     3A    -11.271046
       4A    -11.257725     5A    -11.255340     6A    -11.252685
       7A    -11.249549     8A    -11.245788     9A    -11.244698
      10A     -1.377398    11A     -1.172239    12A     -1.064221
      13A     -1.039827    14A     -0.950029    15A     -0.890457
      16A     -0.820197    17A     -0.787471    18A     -0.709049
      19A     -0.671851    20A     -0.645442    21A     -0.617456
      22A     -0.609811    23A     -0.598921    24A     -0.586320
      25A     -0.541691    26A     -0.539102    27A     -0.517852
      28A     -0.501908    29A     -0.491943    30A     -0.425965
      31A     -0.349332    32A     -0.343176

  @DF-RHF Final Energy:  -382.58748374181050

   => Energetics <=

    Nuclear Repulsion Energy =            401.5338319519973425
    One-Electron Energy =               -1314.4092077019363387
    Two-Electron Energy =                 530.2878920081284377
    Total Energy =                       -382.5874837418105017
  Basis Set: (AUG-CC-PVTZ AUX)
    Blend: AUG-CC-PVTZ-RI
    Molecular point group: c1

    Geometry (in Angstrom), charge = 0, multiplicity = 1:

       Center              X                  Y                   Z               Mass
    ------------   -----------------  -----------------  -----------------  -----------------
         O            2.752108309670    -0.838025029688    -0.000254994942    15.994914619570
         C           -0.401743690330     1.016747970312     0.000096005058    12.000000000000
         C            0.479644309670    -0.084595029688    -0.000054994942    12.000000000000
         C           -1.776559690330     0.751687970312     0.000205005058    12.000000000000
         C           -0.013264690330    -1.397131029688    -0.000108994942    12.000000000000
         C            0.082411309670     2.448189970312     0.000168005058    12.000000000000
         C           -2.268630690330    -0.554260029688     0.000151005058    12.000000000000
         C           -1.383508690330    -1.635282029688    -0.000003994942    12.000000000000
         C            1.951729309670     0.095266970312    -0.000168994942    12.000000000000
         H           -2.475707690330     1.586036970312     0.000323005058     1.007825032230
         H            0.704032309670    -2.213895029688    -0.000226994942     1.007825032230
         H            0.686608309670     2.676673970312    -0.883230994942     1.007825032230
         H           -0.850870190330     3.191468270312     0.000224805058     1.007825032230
         H            0.686636309670     2.676568970312     0.883576005058     1.007825032230
         H           -3.342563690330    -0.726410029688     0.000235005058     1.007825032230
         H           -1.761888690330    -2.654426029688    -0.000047994942     1.007825032230
         H            2.324614309670     1.136238970312    -0.000175994942     1.007825032230

  Basis Set: AUG-CC-PVTZ
    Blend: AUG-CC-PVTZ
  Basis Set: (AUG-CC-PVTZ AUX)
    Blend: AUG-CC-PVTZ-JKFIT
	 Reference Energy          =    -382.5874837418105017 [Eh]
	 Singles Energy            =      -0.0000000000000000 [Eh]
	 Same-Spin Energy          =      -0.4085502027095042 [Eh]
	 Opposite-Spin Energy      =      -1.2879115244715109 [Eh]
	 Correlation Energy        =      -1.6964617271810152 [Eh]
	 Total Energy              =    -384.2839454689915328 [Eh]

	 ================> DF-SCS-MP2 Energies <==================
	-----------------------------------------------------------
	 SCS Same-Spin Scale       =       0.3333333333333333 [-]
	 SCS Opposite-Spin Scale   =       1.2000000000000000 [-]
	 SCS Same-Spin Energy      =      -0.1361834009031681 [Eh]
	 SCS Opposite-Spin Energy  =      -1.5454938293658131 [Eh]
	 SCS Correlation Energy    =      -1.6816772302689813 [Eh]
	 SCS Total Energy          =    -384.2691609720794759 [Eh]
	-----------------------------------------------------------

  Dipole Moment: [D]
     X:    -2.6878      Y:     1.8268      Z:     0.0003     Total:     3.2498

*** Psi4 exiting successfully. Buy a developer a beer!
