                               Psi4 1.4a3.dev225

  ==> Input File <==

--------------------------------------------------------------------------
#psi4
#
memory 32 gb

molecule  {
0 1
  O        2.7820080    -0.8809860    -0.0002600
  C       -0.3718440     0.9737870     0.0000910
  C        0.5095440    -0.1275560    -0.0000600
  C       -1.7466600     0.7087270     0.0002000
  C        0.0166350    -1.4400920    -0.0001140
  C        0.1123110     2.4052290     0.0001630
  C       -2.2387310    -0.5972210     0.0001460
  C       -1.3536090    -1.6782430    -0.0000090
  C        1.9816290     0.0523060    -0.0001740
  H       -2.4136943     1.5047522     0.0003126
  H        0.7339320    -2.2568560    -0.0002320
  H        0.7165080     2.6337130    -0.8832360
  H       -0.7427470     3.0862090     0.0002150
  H        0.7165360     2.6336080     0.8835710
  H       -3.3126640    -0.7693710     0.0002300
  H       -1.7319890    -2.6973870    -0.0000530
  H        2.3545140     1.0932780    -0.0001810
units angstrom
no_reorient  #important for SAPT in psi4, default
symmetry c1  #important for SAPT in psi4, default
}

set PROPERTIES_ORIGIN ["COM"]
properties('MP2/aug-cc-pvtz', properties = ['dipole'])
--------------------------------------------------------------------------

    Molecular point group: c1
  Charge       = 0
  Multiplicity = 1
  Basis Set: AUG-CC-PVTZ
    Blend: AUG-CC-PVTZ
  Basis Set: (AUG-CC-PVTZ AUX)
    Blend: AUG-CC-PVTZ-JKFIT

    Orbital Energies [Eh]
    ---------------------

    Doubly Occupied:

       1A    -20.551900     2A    -11.334658     3A    -11.269654
       4A    -11.257137     5A    -11.252077     6A    -11.248354
       7A    -11.244003     8A    -11.243876     9A    -11.239698
      10A     -1.376648    11A     -1.172052    12A     -1.065166
      13A     -1.041202    14A     -0.955789    15A     -0.890081
      16A     -0.824182    17A     -0.788757    18A     -0.709648
      19A     -0.673712    20A     -0.646617    21A     -0.620642
      22A     -0.610881    23A     -0.597528    24A     -0.586308
      25A     -0.560142    26A     -0.538244    27A     -0.518615
      28A     -0.503970    29A     -0.491255    30A     -0.425319
      31A     -0.348742    32A     -0.342469

  @DF-RHF Final Energy:  -382.59353581812542

   => Energetics <=

    Nuclear Repulsion Energy =            402.2132705182103223
    One-Electron Energy =               -1315.7549599649591983
    Two-Electron Energy =                 530.9481536286235723
    Total Energy =                       -382.5935358181253605
  Basis Set: (AUG-CC-PVTZ AUX)
    Blend: AUG-CC-PVTZ-RI
    Molecular point group: c1

    Geometry (in Angstrom), charge = 0, multiplicity = 1:

       Center              X                  Y                   Z               Mass
    ------------   -----------------  -----------------  -----------------  -----------------
         O            2.751182082001    -0.837180355606    -0.000254909318    15.994914619570
         C           -0.402669917999     1.017592644394     0.000096090682    12.000000000000
         C            0.478718082001    -0.083750355606    -0.000054909318    12.000000000000
         C           -1.777485917999     0.752532644394     0.000205090682    12.000000000000
         C           -0.014190917999    -1.396286355606    -0.000108909318    12.000000000000
         C            0.081485082001     2.449034644394     0.000168090682    12.000000000000
         C           -2.269556917999    -0.553415355606     0.000151090682    12.000000000000
         C           -1.384434917999    -1.634437355606    -0.000003909318    12.000000000000
         C            1.950803082001     0.096111644394    -0.000168909318    12.000000000000
         H           -2.444520217999     1.548557844394     0.000317690682     1.007825032230
         H            0.703106082001    -2.213050355606    -0.000226909318     1.007825032230
         H            0.685682082001     2.677518644394    -0.883230909318     1.007825032230
         H           -0.773572917999     3.130014644394     0.000220090682     1.007825032230
         H            0.685710082001     2.677413644394     0.883576090682     1.007825032230
         H           -3.343489917999    -0.725565355606     0.000235090682     1.007825032230
         H           -1.762814917999    -2.653581355606    -0.000047909318     1.007825032230
         H            2.323688082001     1.137083644394    -0.000175909318     1.007825032230

  Basis Set: AUG-CC-PVTZ
    Blend: AUG-CC-PVTZ
  Basis Set: (AUG-CC-PVTZ AUX)
    Blend: AUG-CC-PVTZ-JKFIT
	 Reference Energy          =    -382.5935358181254173 [Eh]
	 Singles Energy            =      -0.0000000000000000 [Eh]
	 Same-Spin Energy          =      -0.4083541710187976 [Eh]
	 Opposite-Spin Energy      =      -1.2866816360214646 [Eh]
	 Correlation Energy        =      -1.6950358070402620 [Eh]
	 Total Energy              =    -384.2885716251656731 [Eh]

	 ================> DF-SCS-MP2 Energies <==================
	-----------------------------------------------------------
	 SCS Same-Spin Scale       =       0.3333333333333333 [-]
	 SCS Opposite-Spin Scale   =       1.2000000000000000 [-]
	 SCS Same-Spin Energy      =      -0.1361180570062658 [Eh]
	 SCS Opposite-Spin Energy  =      -1.5440179632257574 [Eh]
	 SCS Correlation Energy    =      -1.6801360202320232 [Eh]
	 SCS Total Energy          =    -384.2736718383574157 [Eh]
	-----------------------------------------------------------

  Dipole Moment: [D]
     X:    -2.7289      Y:     1.9013      Z:     0.0003     Total:     3.3259

*** Psi4 exiting successfully. Buy a developer a beer!
