                               Psi4 1.4a3.dev225

  ==> Input File <==

--------------------------------------------------------------------------
#psi4
#
memory 32 gb

molecule  {
0 1
  O        2.7820080    -0.8809860    -0.0002600
  C       -0.3718440     0.9737870     0.0000910
  C        0.5095440    -0.1275560    -0.0000600
  C       -1.7668349     0.8538864     0.0002139
  C        0.0166350    -1.4400920    -0.0001140
  C        0.1123110     2.4052290     0.0001630
  C       -2.2387310    -0.5972210     0.0001460
  C       -1.3536090    -1.6782430    -0.0000090
  C        1.9816290     0.0523060    -0.0001740
  H       -2.4458080     1.5430760     0.0003180
  H        0.7339320    -2.2568560    -0.0002320
  H        0.7165080     2.6337130    -0.8832360
  H       -0.7427470     3.0862090     0.0002150
  H        0.7165360     2.6336080     0.8835710
  H       -3.3126640    -0.7693710     0.0002300
  H       -1.7319890    -2.6973870    -0.0000530
  H        2.3545140     1.0932780    -0.0001810
units angstrom
no_reorient  #important for SAPT in psi4, default
symmetry c1  #important for SAPT in psi4, default
}

set PROPERTIES_ORIGIN ["COM"]
properties('MP2/aug-cc-pvtz', properties = ['dipole'])
--------------------------------------------------------------------------

    Molecular point group: c1
  Charge       = 0
  Multiplicity = 1
  Basis Set: AUG-CC-PVTZ
    Blend: AUG-CC-PVTZ
  Basis Set: (AUG-CC-PVTZ AUX)
    Blend: AUG-CC-PVTZ-JKFIT

    Orbital Energies [Eh]
    ---------------------

    Doubly Occupied:

       1A    -20.550801     2A    -11.335297     3A    -11.272297
       4A    -11.271425     5A    -11.258585     6A    -11.249242
       7A    -11.248468     8A    -11.245946     9A    -11.239342
      10A     -1.376087    11A     -1.164602    12A     -1.066224
      13A     -1.033574    14A     -0.950691    15A     -0.890566
      16A     -0.828061    17A     -0.790454    18A     -0.705680
      19A     -0.674313    20A     -0.663739    21A     -0.615788
      22A     -0.612375    23A     -0.594911    24A     -0.587594
      25A     -0.560823    26A     -0.537377    27A     -0.523163
      28A     -0.487609    29A     -0.484368    30A     -0.425011
      31A     -0.348518    32A     -0.338367

  @DF-RHF Final Energy:  -382.56518475636290

   => Energetics <=

    Nuclear Repulsion Energy =            400.2640715125596671
    One-Electron Energy =               -1311.7959210126011840
    Two-Electron Energy =                 528.9666647436786207
    Total Energy =                       -382.5651847563628962
  Basis Set: (AUG-CC-PVTZ AUX)
    Blend: AUG-CC-PVTZ-RI
    Molecular point group: c1

    Geometry (in Angstrom), charge = 0, multiplicity = 1:

       Center              X                  Y                   Z               Mass
    ------------   -----------------  -----------------  -----------------  -----------------
         O            2.753468184550    -0.852011051434    -0.000256343982    15.994914619570
         C           -0.400383815450     1.002761948566     0.000094656018    12.000000000000
         C            0.481004184550    -0.098581051434    -0.000056343982    12.000000000000
         C           -1.795374715450     0.882861348566     0.000217556018    12.000000000000
         C           -0.011904815450    -1.411117051434    -0.000110343982    12.000000000000
         C            0.083771184550     2.434203948566     0.000166656018    12.000000000000
         C           -2.267270815450    -0.568246051434     0.000149656018    12.000000000000
         C           -1.382148815450    -1.649268051434    -0.000005343982    12.000000000000
         C            1.953089184550     0.081280948566    -0.000170343982    12.000000000000
         H           -2.474347815450     1.572050948566     0.000321656018     1.007825032230
         H            0.705392184550    -2.227881051434    -0.000228343982     1.007825032230
         H            0.687968184550     2.662687948566    -0.883232343982     1.007825032230
         H           -0.771286815450     3.115183948566     0.000218656018     1.007825032230
         H            0.687996184550     2.662582948566     0.883574656018     1.007825032230
         H           -3.341203815450    -0.740396051434     0.000233656018     1.007825032230
         H           -1.760528815450    -2.668412051434    -0.000049343982     1.007825032230
         H            2.325974184550     1.122252948566    -0.000177343982     1.007825032230

  Basis Set: AUG-CC-PVTZ
    Blend: AUG-CC-PVTZ
  Basis Set: (AUG-CC-PVTZ AUX)
    Blend: AUG-CC-PVTZ-JKFIT
	 Reference Energy          =    -382.5651847563628962 [Eh]
	 Singles Energy            =      -0.0000000000000000 [Eh]
	 Same-Spin Energy          =      -0.4083321653437787 [Eh]
	 Opposite-Spin Energy      =      -1.2886750056430203 [Eh]
	 Correlation Energy        =      -1.6970071709867991 [Eh]
	 Total Energy              =    -384.2621919273497042 [Eh]

	 ================> DF-SCS-MP2 Energies <==================
	-----------------------------------------------------------
	 SCS Same-Spin Scale       =       0.3333333333333333 [-]
	 SCS Opposite-Spin Scale   =       1.2000000000000000 [-]
	 SCS Same-Spin Energy      =      -0.1361107217812595 [Eh]
	 SCS Opposite-Spin Energy  =      -1.5464100067716242 [Eh]
	 SCS Correlation Energy    =      -1.6825207285528838 [Eh]
	 SCS Total Energy          =    -384.2477054849157980 [Eh]
	-----------------------------------------------------------

  Dipole Moment: [D]
     X:    -2.7519      Y:     1.8359      Z:     0.0003     Total:     3.3081

*** Psi4 exiting successfully. Buy a developer a beer!
