                               Psi4 1.4a3.dev225

  ==> Input File <==

--------------------------------------------------------------------------
#psi4
#
memory 32 gb

molecule  {
0 1
  O        2.7820080    -0.8809860    -0.0002600
  C       -0.3718440     0.9737870     0.0000910
  C        0.5095440    -0.1275560    -0.0000600
  C       -1.7466600     0.7087270     0.0002000
  C        0.0166350    -1.4400920    -0.0001140
  C        0.1123110     2.4052290     0.0001630
  C       -2.2387310    -0.5972210     0.0001460
  C       -1.3536090    -1.6782430    -0.0000090
  C        1.9816290     0.0523060    -0.0001740
  H       -2.4458080     1.5430760     0.0003180
  H        0.7339320    -2.2568560    -0.0002320
  H        0.6060892     2.5919569    -0.7217922
  H       -0.7427470     3.0862090     0.0002150
  H        0.7165360     2.6336080     0.8835710
  H       -3.3126640    -0.7693710     0.0002300
  H       -1.7319890    -2.6973870    -0.0000530
  H        2.3545140     1.0932780    -0.0001810
units angstrom
no_reorient  #important for SAPT in psi4, default
symmetry c1  #important for SAPT in psi4, default
}

set PROPERTIES_ORIGIN ["COM"]
properties('MP2/aug-cc-pvtz', properties = ['dipole'])
--------------------------------------------------------------------------

    Molecular point group: c1
  Charge       = 0
  Multiplicity = 1
  Basis Set: AUG-CC-PVTZ
    Blend: AUG-CC-PVTZ
  Basis Set: (AUG-CC-PVTZ AUX)
    Blend: AUG-CC-PVTZ-JKFIT

    Orbital Energies [Eh]
    ---------------------

    Doubly Occupied:

       1A    -20.552244     2A    -11.335353     3A    -11.269105
       4A    -11.257209     5A    -11.252009     6A    -11.248553
       7A    -11.244889     8A    -11.243995     9A    -11.219472
      10A     -1.377026    11A     -1.172322    12A     -1.071991
      13A     -1.040011    14A     -0.972602    15A     -0.891058
      16A     -0.824942    17A     -0.788427    18A     -0.711273
      19A     -0.673372    20A     -0.649382    21A     -0.626009
      22A     -0.617221    23A     -0.608767    24A     -0.586050
      25A     -0.560527    26A     -0.541073    27A     -0.519548
      28A     -0.501872    29A     -0.492290    30A     -0.425970
      31A     -0.348765    32A     -0.343286

  @DF-RHF Final Energy:  -382.56050294702385

   => Energetics <=

    Nuclear Repulsion Energy =            402.9286216042825117
    One-Electron Energy =               -1317.0450205228257801
    Two-Electron Energy =                 531.5558959715193623
    Total Energy =                       -382.5605029470239060
  Basis Set: (AUG-CC-PVTZ AUX)
    Blend: AUG-CC-PVTZ-RI
    Molecular point group: c1

    Geometry (in Angstrom), charge = 0, multiplicity = 1:

       Center              X                  Y                   Z               Mass
    ------------   -----------------  -----------------  -----------------  -----------------
         O            2.752378573713    -0.837151543100    -0.001610197618    15.994914619570
         C           -0.401473426287     1.017621456900    -0.001259197618    12.000000000000
         C            0.479914573713    -0.083721543100    -0.001410197618    12.000000000000
         C           -1.776289426287     0.752561456900    -0.001150197618    12.000000000000
         C           -0.012994426287    -1.396257543100    -0.001464197618    12.000000000000
         C            0.082681573713     2.449063456900    -0.001187197618    12.000000000000
         C           -2.268360426287    -0.553386543100    -0.001204197618    12.000000000000
         C           -1.383238426287    -1.634408543100    -0.001359197618    12.000000000000
         C            1.951999573713     0.096140456900    -0.001524197618    12.000000000000
         H           -2.475437426287     1.586910456900    -0.001032197618     1.007825032230
         H            0.704302573713    -2.213021543100    -0.001582197618     1.007825032230
         H            0.576459773713     2.635791356900    -0.723142397618     1.007825032230
         H           -0.772376426287     3.130043456900    -0.001135197618     1.007825032230
         H            0.686906573713     2.677442456900     0.882220802382     1.007825032230
         H           -3.342293426287    -0.725536543100    -0.001120197618     1.007825032230
         H           -1.761618426287    -2.653552543100    -0.001403197618     1.007825032230
         H            2.324884573713     1.137112456900    -0.001531197618     1.007825032230

  Basis Set: AUG-CC-PVTZ
    Blend: AUG-CC-PVTZ
  Basis Set: (AUG-CC-PVTZ AUX)
    Blend: AUG-CC-PVTZ-JKFIT
	 Reference Energy          =    -382.5605029470238492 [Eh]
	 Singles Energy            =      -0.0000000000000000 [Eh]
	 Same-Spin Energy          =      -0.4085223654074170 [Eh]
	 Opposite-Spin Energy      =      -1.2863426584268771 [Eh]
	 Correlation Energy        =      -1.6948650238342942 [Eh]
	 Total Energy              =    -384.2553679708581171 [Eh]

	 ================> DF-SCS-MP2 Energies <==================
	-----------------------------------------------------------
	 SCS Same-Spin Scale       =       0.3333333333333333 [-]
	 SCS Opposite-Spin Scale   =       1.2000000000000000 [-]
	 SCS Same-Spin Energy      =      -0.1361741218024723 [Eh]
	 SCS Opposite-Spin Energy  =      -1.5436111901122525 [Eh]
	 SCS Correlation Energy    =      -1.6797853119147248 [Eh]
	 SCS Total Energy          =    -384.2402882589385626 [Eh]
	-----------------------------------------------------------

  Dipole Moment: [D]
     X:    -2.6865      Y:     1.9189      Z:    -0.0284     Total:     3.3016

*** Psi4 exiting successfully. Buy a developer a beer!
