                               Psi4 1.4a3.dev225

  ==> Input File <==

--------------------------------------------------------------------------
#psi4
#
memory 32 gb

molecule  {
0 1
  O        2.7820080    -0.8809860    -0.0002600
  C       -0.3718440     0.9737870     0.0000910
  C        0.5095440    -0.1275560    -0.0000600
  C       -1.7239430     0.6999403     0.0001973
  C        0.0166350    -1.4400920    -0.0001140
  C        0.1123110     2.4052290     0.0001630
  C       -2.2387310    -0.5972210     0.0001460
  C       -1.3536090    -1.6782430    -0.0000090
  C        1.9816290     0.0523060    -0.0001740
  H       -2.4458080     1.5430760     0.0003180
  H        0.7339320    -2.2568560    -0.0002320
  H        0.7165080     2.6337130    -0.8832360
  H       -0.7427470     3.0862090     0.0002150
  H        0.7165360     2.6336080     0.8835710
  H       -3.3126640    -0.7693710     0.0002300
  H       -1.7319890    -2.6973870    -0.0000530
  H        2.3545140     1.0932780    -0.0001810
units angstrom
no_reorient  #important for SAPT in psi4, default
symmetry c1  #important for SAPT in psi4, default
}

set PROPERTIES_ORIGIN ["COM"]
properties('MP2/aug-cc-pvtz', properties = ['dipole'])
--------------------------------------------------------------------------

    Molecular point group: c1
  Charge       = 0
  Multiplicity = 1
  Basis Set: AUG-CC-PVTZ
    Blend: AUG-CC-PVTZ
  Basis Set: (AUG-CC-PVTZ AUX)
    Blend: AUG-CC-PVTZ-JKFIT

    Orbital Energies [Eh]
    ---------------------

    Doubly Occupied:

       1A    -20.552037     2A    -11.334714     3A    -11.267272
       4A    -11.257656     5A    -11.252144     6A    -11.248747
       7A    -11.245148     8A    -11.244541     9A    -11.243695
      10A     -1.376754    11A     -1.174216    12A     -1.066218
      13A     -1.039760    14A     -0.955506    15A     -0.891577
      16A     -0.820771    17A     -0.786899    18A     -0.708874
      19A     -0.673858    20A     -0.645263    21A     -0.617085
      22A     -0.607625    23A     -0.597894    24A     -0.586410
      25A     -0.557039    26A     -0.538521    27A     -0.522133
      28A     -0.498743    29A     -0.492563    30A     -0.425556
      31A     -0.348622    32A     -0.344653

  @DF-RHF Final Energy:  -382.59350050263936

   => Energetics <=

    Nuclear Repulsion Energy =            402.3756291893222397
    One-Electron Energy =               -1316.0932698302633526
    Two-Electron Energy =                 531.1241401383017546
    Total Energy =                       -382.5935005026393583
  Basis Set: (AUG-CC-PVTZ AUX)
    Blend: AUG-CC-PVTZ-RI
    Molecular point group: c1

    Geometry (in Angstrom), charge = 0, multiplicity = 1:

       Center              X                  Y                   Z               Mass
    ------------   -----------------  -----------------  -----------------  -----------------
         O            2.749181049334    -0.836623816392    -0.000254684778    15.994914619570
         C           -0.404670950666     1.018149183608     0.000096315222    12.000000000000
         C            0.476717049334    -0.083193816392    -0.000054684778    12.000000000000
         C           -1.756769950666     0.744302483608     0.000202615222    12.000000000000
         C           -0.016191950666    -1.395729816392    -0.000108684778    12.000000000000
         C            0.079484049334     2.449591183608     0.000168315222    12.000000000000
         C           -2.271557950666    -0.552858816392     0.000151315222    12.000000000000
         C           -1.386435950666    -1.633880816392    -0.000003684778    12.000000000000
         C            1.948802049334     0.096668183608    -0.000168684778    12.000000000000
         H           -2.478634950666     1.587438183608     0.000323315222     1.007825032230
         H            0.701105049334    -2.212493816392    -0.000226684778     1.007825032230
         H            0.683681049334     2.678075183608    -0.883230684778     1.007825032230
         H           -0.775573950666     3.130571183608     0.000220315222     1.007825032230
         H            0.683709049334     2.677970183608     0.883576315222     1.007825032230
         H           -3.345490950666    -0.725008816392     0.000235315222     1.007825032230
         H           -1.764815950666    -2.653024816392    -0.000047684778     1.007825032230
         H            2.321687049334     1.137640183608    -0.000175684778     1.007825032230

  Basis Set: AUG-CC-PVTZ
    Blend: AUG-CC-PVTZ
  Basis Set: (AUG-CC-PVTZ AUX)
    Blend: AUG-CC-PVTZ-JKFIT
	 Reference Energy          =    -382.5935005026393583 [Eh]
	 Singles Energy            =      -0.0000000000000000 [Eh]
	 Same-Spin Energy          =      -0.4085610677347729 [Eh]
	 Opposite-Spin Energy      =      -1.2870752274388733 [Eh]
	 Correlation Energy        =      -1.6956362951736461 [Eh]
	 Total Energy              =    -384.2891367978130006 [Eh]

	 ================> DF-SCS-MP2 Energies <==================
	-----------------------------------------------------------
	 SCS Same-Spin Scale       =       0.3333333333333333 [-]
	 SCS Opposite-Spin Scale   =       1.2000000000000000 [-]
	 SCS Same-Spin Energy      =      -0.1361870225782576 [Eh]
	 SCS Opposite-Spin Energy  =      -1.5444902729266479 [Eh]
	 SCS Correlation Energy    =      -1.6806772955049054 [Eh]
	 SCS Total Energy          =    -384.2741777981442510 [Eh]
	-----------------------------------------------------------

  Dipole Moment: [D]
     X:    -2.7141      Y:     1.8675      Z:     0.0003     Total:     3.2946

*** Psi4 exiting successfully. Buy a developer a beer!
