                               Psi4 1.4a3.dev225

  ==> Input File <==

--------------------------------------------------------------------------
#psi4
#
memory 32 gb

molecule  {
0 1
  O        2.7820080    -0.8809860    -0.0002600
  C       -0.3718440     0.9737870     0.0000910
  C        0.5095440    -0.1275560    -0.0000600
  C       -1.7466600     0.7087270     0.0002000
  C        0.0166350    -1.4400920    -0.0001140
  C        0.1123110     2.4052290     0.0001630
  C       -2.2387310    -0.5972210     0.0001460
  C       -1.3536090    -1.6782430    -0.0000090
  C        1.9816290     0.0523060    -0.0001740
  H       -2.4329625     1.5277465     0.0003158
  H        0.7339320    -2.2568560    -0.0002320
  H        0.7165080     2.6337130    -0.8832360
  H       -0.7427470     3.0862090     0.0002150
  H        0.7165360     2.6336080     0.8835710
  H       -3.3126640    -0.7693710     0.0002300
  H       -1.7319890    -2.6973870    -0.0000530
  H        2.3545140     1.0932780    -0.0001810
units angstrom
no_reorient  #important for SAPT in psi4, default
symmetry c1  #important for SAPT in psi4, default
}

set PROPERTIES_ORIGIN ["COM"]
properties('MP2/aug-cc-pvtz', properties = ['dipole'])
--------------------------------------------------------------------------

    Molecular point group: c1
  Charge       = 0
  Multiplicity = 1
  Basis Set: AUG-CC-PVTZ
    Blend: AUG-CC-PVTZ
  Basis Set: (AUG-CC-PVTZ AUX)
    Blend: AUG-CC-PVTZ-JKFIT

    Orbital Energies [Eh]
    ---------------------

    Doubly Occupied:

       1A    -20.552017     2A    -11.334785     3A    -11.269923
       4A    -11.257396     5A    -11.252187     6A    -11.248575
       7A    -11.244205     8A    -11.243825     9A    -11.243288
      10A     -1.376757    11A     -1.171997    12A     -1.065273
      13A     -1.040365    14A     -0.955456    15A     -0.890008
      16A     -0.822687    17A     -0.787760    18A     -0.708988
      19A     -0.673695    20A     -0.645560    21A     -0.619281
      22A     -0.610093    23A     -0.597533    24A     -0.585929
      25A     -0.559245    26A     -0.538346    27A     -0.518706
      28A     -0.503132    29A     -0.491415    30A     -0.425426
      31A     -0.348883    32A     -0.342625

  @DF-RHF Final Energy:  -382.59440483606420

   => Energetics <=

    Nuclear Repulsion Energy =            402.0548324264566418
    One-Electron Energy =               -1315.4477554869458800
    Two-Electron Energy =                 530.7985182244250382
    Total Energy =                       -382.5944048360642000
  Basis Set: (AUG-CC-PVTZ AUX)
    Blend: AUG-CC-PVTZ-RI
    Molecular point group: c1

    Geometry (in Angstrom), charge = 0, multiplicity = 1:

       Center              X                  Y                   Z               Mass
    ------------   -----------------  -----------------  -----------------  -----------------
         O            2.751343829263    -0.837373381683    -0.000254936180    15.994914619570
         C           -0.402508170737     1.017399618317     0.000096063820    12.000000000000
         C            0.478879829263    -0.083943381683    -0.000054936180    12.000000000000
         C           -1.777324170737     0.752339618317     0.000205063820    12.000000000000
         C           -0.014029170737    -1.396479381683    -0.000108936180    12.000000000000
         C            0.081646829263     2.448841618317     0.000168063820    12.000000000000
         C           -2.269395170737    -0.553608381683     0.000151063820    12.000000000000
         C           -1.384273170737    -1.634630381683    -0.000003936180    12.000000000000
         C            1.950964829263     0.095918618317    -0.000168936180    12.000000000000
         H           -2.463626670737     1.571359118317     0.000320863820     1.007825032230
         H            0.703267829263    -2.213243381683    -0.000226936180     1.007825032230
         H            0.685843829263     2.677325618317    -0.883230936180     1.007825032230
         H           -0.773411170737     3.129821618317     0.000220063820     1.007825032230
         H            0.685871829263     2.677220618317     0.883576063820     1.007825032230
         H           -3.343328170737    -0.725758381683     0.000235063820     1.007825032230
         H           -1.762653170737    -2.653774381683    -0.000047936180     1.007825032230
         H            2.323849829263     1.136890618317    -0.000175936180     1.007825032230

  Basis Set: AUG-CC-PVTZ
    Blend: AUG-CC-PVTZ
  Basis Set: (AUG-CC-PVTZ AUX)
    Blend: AUG-CC-PVTZ-JKFIT
	 Reference Energy          =    -382.5944048360642000 [Eh]
	 Singles Energy            =      -0.0000000000000000 [Eh]
	 Same-Spin Energy          =      -0.4084187969314807 [Eh]
	 Opposite-Spin Energy      =      -1.2868681362715699 [Eh]
	 Correlation Energy        =      -1.6952869332030507 [Eh]
	 Total Energy              =    -384.2896917692672787 [Eh]

	 ================> DF-SCS-MP2 Energies <==================
	-----------------------------------------------------------
	 SCS Same-Spin Scale       =       0.3333333333333333 [-]
	 SCS Opposite-Spin Scale   =       1.2000000000000000 [-]
	 SCS Same-Spin Energy      =      -0.1361395989771602 [Eh]
	 SCS Opposite-Spin Energy  =      -1.5442417635258838 [Eh]
	 SCS Correlation Energy    =      -1.6803813625030442 [Eh]
	 SCS Total Energy          =    -384.2747861985672557 [Eh]
	-----------------------------------------------------------

  Dipole Moment: [D]
     X:    -2.7218      Y:     1.8927      Z:     0.0003     Total:     3.3152

*** Psi4 exiting successfully. Buy a developer a beer!
