                               Psi4 1.4a3.dev225

  ==> Input File <==

--------------------------------------------------------------------------
#psi4
#
memory 32 gb

molecule  {
0 1
  O        2.7820080    -0.8809860    -0.0002600
  C       -0.3718440     0.9737870     0.0000910
  C        0.5095440    -0.1275560    -0.0000600
  C       -1.7466600     0.7087270     0.0002000
  C        0.0166350    -1.4400920    -0.0001140
  C        0.0802712     2.3105007     0.0001582
  C       -2.2387310    -0.5972210     0.0001460
  C       -1.3536090    -1.6782430    -0.0000090
  C        1.9816290     0.0523060    -0.0001740
  H       -2.4458080     1.5430760     0.0003180
  H        0.7339320    -2.2568560    -0.0002320
  H        0.7165080     2.6337130    -0.8832360
  H       -0.7427470     3.0862090     0.0002150
  H        0.7165360     2.6336080     0.8835710
  H       -3.3126640    -0.7693710     0.0002300
  H       -1.7319890    -2.6973870    -0.0000530
  H        2.3545140     1.0932780    -0.0001810
units angstrom
no_reorient  #important for SAPT in psi4, default
symmetry c1  #important for SAPT in psi4, default
}

set PROPERTIES_ORIGIN ["COM"]
properties('MP2/aug-cc-pvtz', properties = ['dipole'])
--------------------------------------------------------------------------

    Molecular point group: c1
  Charge       = 0
  Multiplicity = 1
  Basis Set: AUG-CC-PVTZ
    Blend: AUG-CC-PVTZ
  Basis Set: (AUG-CC-PVTZ AUX)
    Blend: AUG-CC-PVTZ-JKFIT

    Orbital Energies [Eh]
    ---------------------

    Doubly Occupied:

       1A    -20.552310     2A    -11.334805     3A    -11.265038
       4A    -11.257744     5A    -11.252688     6A    -11.248821
       7A    -11.248005     8A    -11.245825     9A    -11.244693
      10A     -1.376959    11A     -1.177088    12A     -1.076370
      13A     -1.041209    14A     -0.953091    15A     -0.890380
      16A     -0.821020    17A     -0.787340    18A     -0.711574
      19A     -0.676393    20A     -0.650602    21A     -0.621060
      22A     -0.610854    23A     -0.597066    24A     -0.590014
      25A     -0.545531    26A     -0.533756    27A     -0.519108
      28A     -0.504598    29A     -0.488733    30A     -0.425020
      31A     -0.349377    32A     -0.339949

  @DF-RHF Final Energy:  -382.58185577394181

   => Energetics <=

    Nuclear Repulsion Energy =            403.6909780986416649
    One-Electron Energy =               -1318.6716250922108884
    Two-Electron Energy =                 532.3987912196274692
    Total Energy =                       -382.5818557739418111
  Basis Set: (AUG-CC-PVTZ AUX)
    Blend: AUG-CC-PVTZ-RI
    Molecular point group: c1

    Geometry (in Angstrom), charge = 0, multiplicity = 1:

       Center              X                  Y                   Z               Mass
    ------------   -----------------  -----------------  -----------------  -----------------
         O            2.754654106149    -0.828033773519    -0.000254474878    15.994914619570
         C           -0.399197893851     1.026739226481     0.000096525122    12.000000000000
         C            0.482190106149    -0.074603773519    -0.000054474878    12.000000000000
         C           -1.774013893851     0.761679226481     0.000205525122    12.000000000000
         C           -0.010718893851    -1.387139773519    -0.000108474878    12.000000000000
         C            0.052917306149     2.363452926481     0.000163725122    12.000000000000
         C           -2.266084893851    -0.544268773519     0.000151525122    12.000000000000
         C           -1.380962893851    -1.625290773519    -0.000003474878    12.000000000000
         C            1.954275106149     0.105258226481    -0.000168474878    12.000000000000
         H           -2.473161893851     1.596028226481     0.000323525122     1.007825032230
         H            0.706578106149    -2.203903773519    -0.000226474878     1.007825032230
         H            0.689154106149     2.686665226481    -0.883230474878     1.007825032230
         H           -0.770100893851     3.139161226481     0.000220525122     1.007825032230
         H            0.689182106149     2.686560226481     0.883576525122     1.007825032230
         H           -3.340017893851    -0.716418773519     0.000235525122     1.007825032230
         H           -1.759342893851    -2.644434773519    -0.000047474878     1.007825032230
         H            2.327160106149     1.146230226481    -0.000175474878     1.007825032230

  Basis Set: AUG-CC-PVTZ
    Blend: AUG-CC-PVTZ
  Basis Set: (AUG-CC-PVTZ AUX)
    Blend: AUG-CC-PVTZ-JKFIT
	 Reference Energy          =    -382.5818557739418111 [Eh]
	 Singles Energy            =      -0.0000000000000000 [Eh]
	 Same-Spin Energy          =      -0.4098155313613944 [Eh]
	 Opposite-Spin Energy      =      -1.2886357513549984 [Eh]
	 Correlation Energy        =      -1.6984512827163929 [Eh]
	 Total Energy              =    -384.2803070566582164 [Eh]

	 ================> DF-SCS-MP2 Energies <==================
	-----------------------------------------------------------
	 SCS Same-Spin Scale       =       0.3333333333333333 [-]
	 SCS Opposite-Spin Scale   =       1.2000000000000000 [-]
	 SCS Same-Spin Energy      =      -0.1366051771204648 [Eh]
	 SCS Opposite-Spin Energy  =      -1.5463629016259981 [Eh]
	 SCS Correlation Energy    =      -1.6829680787464629 [Eh]
	 SCS Total Energy          =    -384.2648238526882665 [Eh]
	-----------------------------------------------------------

  Dipole Moment: [D]
     X:    -2.7078      Y:     1.8952      Z:     0.0003     Total:     3.3051

*** Psi4 exiting successfully. Buy a developer a beer!
