                               Psi4 1.4a3.dev225

  ==> Input File <==

--------------------------------------------------------------------------
#psi4
#
memory 32 gb

molecule  {
0 1
  O        2.7820080    -0.8809860    -0.0002600
  C       -0.3718440     0.9737870     0.0000910
  C        0.5095440    -0.1275560    -0.0000600
  C       -1.7466600     0.7087270     0.0002000
  C        0.0166350    -1.4400920    -0.0001140
  C        0.1283309     2.4525931     0.0001654
  C       -2.2387310    -0.5972210     0.0001460
  C       -1.3536090    -1.6782430    -0.0000090
  C        1.9816290     0.0523060    -0.0001740
  H       -2.4458080     1.5430760     0.0003180
  H        0.7339320    -2.2568560    -0.0002320
  H        0.7165080     2.6337130    -0.8832360
  H       -0.7427470     3.0862090     0.0002150
  H        0.7165360     2.6336080     0.8835710
  H       -3.3126640    -0.7693710     0.0002300
  H       -1.7319890    -2.6973870    -0.0000530
  H        2.3545140     1.0932780    -0.0001810
units angstrom
no_reorient  #important for SAPT in psi4, default
symmetry c1  #important for SAPT in psi4, default
}

set PROPERTIES_ORIGIN ["COM"]
properties('MP2/aug-cc-pvtz', properties = ['dipole'])
--------------------------------------------------------------------------

    Molecular point group: c1
  Charge       = 0
  Multiplicity = 1
  Basis Set: AUG-CC-PVTZ
    Blend: AUG-CC-PVTZ
  Basis Set: (AUG-CC-PVTZ AUX)
    Blend: AUG-CC-PVTZ-JKFIT

    Orbital Energies [Eh]
    ---------------------

    Doubly Occupied:

       1A    -20.551989     2A    -11.334876     3A    -11.271978
       4A    -11.257487     5A    -11.252064     6A    -11.248697
       7A    -11.245616     8A    -11.244189     9A    -11.242707
      10A     -1.376762    11A     -1.170190    12A     -1.061015
      13A     -1.039150    14A     -0.956783    15A     -0.889744
      16A     -0.821925    17A     -0.786955    18A     -0.707501
      19A     -0.672734    20A     -0.643133    21A     -0.617975
      22A     -0.608901    23A     -0.602998    24A     -0.580235
      25A     -0.565711    26A     -0.540215    27A     -0.518005
      28A     -0.497170    29A     -0.492339    30A     -0.425556
      31A     -0.348811    32A     -0.343573

  @DF-RHF Final Energy:  -382.59274638386881

   => Energetics <=

    Nuclear Repulsion Energy =            401.1276848131548149
    One-Electron Energy =               -1313.6068931417025851
    Two-Electron Energy =                 529.8864619446788993
    Total Energy =                       -382.5927463838688709
  Basis Set: (AUG-CC-PVTZ AUX)
    Blend: AUG-CC-PVTZ-RI
    Molecular point group: c1

    Geometry (in Angstrom), charge = 0, multiplicity = 1:

       Center              X                  Y                   Z               Mass
    ------------   -----------------  -----------------  -----------------  -----------------
         O            2.749850438502    -0.842236206426    -0.000255194533    15.994914619570
         C           -0.404001561498     1.012536793574     0.000095805467    12.000000000000
         C            0.477386438502    -0.088806206426    -0.000055194533    12.000000000000
         C           -1.778817561498     0.747476793574     0.000204805467    12.000000000000
         C           -0.015522561498    -1.401342206426    -0.000109194533    12.000000000000
         C            0.096173338502     2.491342893574     0.000170205467    12.000000000000
         C           -2.270888561498    -0.558471206426     0.000150805467    12.000000000000
         C           -1.385766561498    -1.639493206426    -0.000004194533    12.000000000000
         C            1.949471438502     0.091055793574    -0.000169194533    12.000000000000
         H           -2.477965561498     1.581825793574     0.000322805467     1.007825032230
         H            0.701774438502    -2.218106206426    -0.000227194533     1.007825032230
         H            0.684350438502     2.672462793574    -0.883231194533     1.007825032230
         H           -0.774904561498     3.124958793574     0.000219805467     1.007825032230
         H            0.684378438502     2.672357793574     0.883575805467     1.007825032230
         H           -3.344821561498    -0.730621206426     0.000234805467     1.007825032230
         H           -1.764146561498    -2.658637206426    -0.000048194533     1.007825032230
         H            2.322356438502     1.132027793574    -0.000176194533     1.007825032230

  Basis Set: AUG-CC-PVTZ
    Blend: AUG-CC-PVTZ
  Basis Set: (AUG-CC-PVTZ AUX)
    Blend: AUG-CC-PVTZ-JKFIT
	 Reference Energy          =    -382.5927463838688141 [Eh]
	 Singles Energy            =      -0.0000000000000000 [Eh]
	 Same-Spin Energy          =      -0.4081166726933852 [Eh]
	 Opposite-Spin Energy      =      -1.2867443584877218 [Eh]
	 Correlation Energy        =      -1.6948610311811070 [Eh]
	 Total Energy              =    -384.2876074150499335 [Eh]

	 ================> DF-SCS-MP2 Energies <==================
	-----------------------------------------------------------
	 SCS Same-Spin Scale       =       0.3333333333333333 [-]
	 SCS Opposite-Spin Scale   =       1.2000000000000000 [-]
	 SCS Same-Spin Energy      =      -0.1360388908977951 [Eh]
	 SCS Opposite-Spin Energy  =      -1.5440932301852661 [Eh]
	 SCS Correlation Energy    =      -1.6801321210830611 [Eh]
	 SCS Total Energy          =    -384.2728785049518478 [Eh]
	-----------------------------------------------------------

  Dipole Moment: [D]
     X:    -2.7222      Y:     1.8771      Z:     0.0003     Total:     3.3066

*** Psi4 exiting successfully. Buy a developer a beer!
