                               Psi4 1.4a3.dev225

  ==> Input File <==

--------------------------------------------------------------------------
#psi4
#
memory 32 gb

molecule  {
0 1
  O        2.7820080    -0.8809860    -0.0002600
  C       -0.3718440     0.9737870     0.0000910
  C        0.5095440    -0.1275560    -0.0000600
  C       -1.7466600     0.7087270     0.0002000
  C        0.0166350    -1.4400920    -0.0001140
  C        0.1123110     2.4052290     0.0001630
  C       -2.2387310    -0.5972210     0.0001460
  C       -1.4521320    -1.6953665    -0.0000015
  C        1.9816290     0.0523060    -0.0001740
  H       -2.4458080     1.5430760     0.0003180
  H        0.7339320    -2.2568560    -0.0002320
  H        0.7165080     2.6337130    -0.8832360
  H       -0.7427470     3.0862090     0.0002150
  H        0.7165360     2.6336080     0.8835710
  H       -3.3126640    -0.7693710     0.0002300
  H       -1.7319890    -2.6973870    -0.0000530
  H        2.3545140     1.0932780    -0.0001810
units angstrom
no_reorient  #important for SAPT in psi4, default
symmetry c1  #important for SAPT in psi4, default
}

set PROPERTIES_ORIGIN ["COM"]
properties('MP2/aug-cc-pvtz', properties = ['dipole'])
--------------------------------------------------------------------------

    Molecular point group: c1
  Charge       = 0
  Multiplicity = 1
  Basis Set: AUG-CC-PVTZ
    Blend: AUG-CC-PVTZ
  Basis Set: (AUG-CC-PVTZ AUX)
    Blend: AUG-CC-PVTZ-JKFIT

    Orbital Energies [Eh]
    ---------------------

    Doubly Occupied:

       1A    -20.552423     2A    -11.335702     3A    -11.269296
       4A    -11.264913     5A    -11.251527     6A    -11.249463
       7A    -11.246285     8A    -11.244520     9A    -11.243488
      10A     -1.377235    11A     -1.168536    12A     -1.067252
      13A     -1.035874    14A     -0.953463    15A     -0.889483
      16A     -0.825789    17A     -0.785660    18A     -0.710169
      19A     -0.672908    20A     -0.648341    21A     -0.619216
      22A     -0.616939    23A     -0.597027    24A     -0.582085
      25A     -0.556685    26A     -0.537803    27A     -0.513804
      28A     -0.503700    29A     -0.490090    30A     -0.425510
      31A     -0.355676    32A     -0.333851

  @DF-RHF Final Energy:  -382.58270782384091

   => Energetics <=

    Nuclear Repulsion Energy =            400.8838757435540288
    One-Electron Energy =               -1313.0837426716946084
    Two-Electron Energy =                 529.6171591042997306
    Total Energy =                       -382.5827078238409058
  Basis Set: (AUG-CC-PVTZ AUX)
    Blend: AUG-CC-PVTZ-RI
    Molecular point group: c1

    Geometry (in Angstrom), charge = 0, multiplicity = 1:

       Center              X                  Y                   Z               Mass
    ------------   -----------------  -----------------  -----------------  -----------------
         O            2.761299241198    -0.835790535775    -0.000255704289    15.994914619570
         C           -0.392552758802     1.018982464225     0.000095295711    12.000000000000
         C            0.488835241198    -0.082360535775    -0.000055704289    12.000000000000
         C           -1.767368758802     0.753922464225     0.000204295711    12.000000000000
         C           -0.004073758802    -1.394896535775    -0.000109704289    12.000000000000
         C            0.091602241198     2.450424464225     0.000167295711    12.000000000000
         C           -2.259439758802    -0.552025535775     0.000150295711    12.000000000000
         C           -1.472840758802    -1.650171035775     0.000002795711    12.000000000000
         C            1.960920241198     0.097501464225    -0.000169704289    12.000000000000
         H           -2.466516758802     1.588271464225     0.000322295711     1.007825032230
         H            0.713223241198    -2.211660535775    -0.000227704289     1.007825032230
         H            0.695799241198     2.678908464225    -0.883231704289     1.007825032230
         H           -0.763455758802     3.131404464225     0.000219295711     1.007825032230
         H            0.695827241198     2.678803464225     0.883575295711     1.007825032230
         H           -3.333372758802    -0.724175535775     0.000234295711     1.007825032230
         H           -1.752697758802    -2.652191535775    -0.000048704289     1.007825032230
         H            2.333805241198     1.138473464225    -0.000176704289     1.007825032230

  Basis Set: AUG-CC-PVTZ
    Blend: AUG-CC-PVTZ
  Basis Set: (AUG-CC-PVTZ AUX)
    Blend: AUG-CC-PVTZ-JKFIT
	 Reference Energy          =    -382.5827078238409058 [Eh]
	 Singles Energy            =      -0.0000000000000000 [Eh]
	 Same-Spin Energy          =      -0.4081660450152090 [Eh]
	 Opposite-Spin Energy      =      -1.2875593629795146 [Eh]
	 Correlation Energy        =      -1.6957254079947237 [Eh]
	 Total Energy              =    -384.2784332318356064 [Eh]

	 ================> DF-SCS-MP2 Energies <==================
	-----------------------------------------------------------
	 SCS Same-Spin Scale       =       0.3333333333333333 [-]
	 SCS Opposite-Spin Scale   =       1.2000000000000000 [-]
	 SCS Same-Spin Energy      =      -0.1360553483384030 [Eh]
	 SCS Opposite-Spin Energy  =      -1.5450712355754175 [Eh]
	 SCS Correlation Energy    =      -1.6811265839138205 [Eh]
	 SCS Total Energy          =    -384.2638344077547004 [Eh]
	-----------------------------------------------------------

  Dipole Moment: [D]
     X:    -2.6619      Y:     1.8347      Z:     0.0003     Total:     3.2329

*** Psi4 exiting successfully. Buy a developer a beer!
