                               Psi4 1.4a3.dev225

  ==> Input File <==

--------------------------------------------------------------------------
#psi4
#
memory 32 gb

molecule  {
0 1
  O        2.7820080    -0.8809860    -0.0002600
  C       -0.3718440     0.9737870     0.0000910
  C        0.5095440    -0.1275560    -0.0000600
  C       -1.7466600     0.7087270     0.0002000
  C        0.0166350    -1.4400920    -0.0001140
  C        0.1123110     2.4052290     0.0001630
  C       -2.2387310    -0.5972210     0.0001460
  C       -1.3536090    -1.6782430    -0.0000090
  C        1.9816290     0.0523060    -0.0001740
  H       -2.4458080     1.5430760     0.0003180
  H        0.7339320    -2.2568560    -0.0002320
  H        0.7165080     2.6337130    -0.8832360
  H       -0.7427470     3.0862090     0.0002150
  H        0.7165360     2.6336080     0.8835710
  H       -3.2139245    -0.7535432     0.0002223
  H       -1.7319890    -2.6973870    -0.0000530
  H        2.3545140     1.0932780    -0.0001810
units angstrom
no_reorient  #important for SAPT in psi4, default
symmetry c1  #important for SAPT in psi4, default
}

set PROPERTIES_ORIGIN ["COM"]
properties('MP2/aug-cc-pvtz', properties = ['dipole'])
--------------------------------------------------------------------------

    Molecular point group: c1
  Charge       = 0
  Multiplicity = 1
  Basis Set: AUG-CC-PVTZ
    Blend: AUG-CC-PVTZ
  Basis Set: (AUG-CC-PVTZ AUX)
    Blend: AUG-CC-PVTZ-JKFIT

    Orbital Energies [Eh]
    ---------------------

    Doubly Occupied:

       1A    -20.551924     2A    -11.334677     3A    -11.269561
       4A    -11.251700     5A    -11.248483     6A    -11.246124
       7A    -11.244702     8A    -11.243472     9A    -11.243462
      10A     -1.376654    11A     -1.172124    12A     -1.066665
      13A     -1.041512    14A     -0.954873    15A     -0.895247
      16A     -0.822301    17A     -0.790997    18A     -0.711496
      19A     -0.679056    20A     -0.651781    21A     -0.618552
      22A     -0.610160    23A     -0.597230    24A     -0.585270
      25A     -0.559230    26A     -0.538161    27A     -0.524323
      28A     -0.502001    29A     -0.491100    30A     -0.425365
      31A     -0.348683    32A     -0.342269

  @DF-RHF Final Energy:  -382.58842827203677

   => Energetics <=

    Nuclear Repulsion Energy =            402.4907003291914975
    One-Electron Energy =               -1316.2799471271061975
    Two-Electron Energy =                 531.2008185258780486
    Total Energy =                       -382.5884282720367082
  Basis Set: (AUG-CC-PVTZ AUX)
    Blend: AUG-CC-PVTZ-RI
    Molecular point group: c1

    Geometry (in Angstrom), charge = 0, multiplicity = 1:

       Center              X                  Y                   Z               Mass
    ------------   -----------------  -----------------  -----------------  -----------------
         O            2.750622790489    -0.837634932215    -0.000254890011    15.994914619570
         C           -0.403229209511     1.017138067785     0.000096109989    12.000000000000
         C            0.478158790489    -0.084204932215    -0.000054890011    12.000000000000
         C           -1.778045209511     0.752078067785     0.000205109989    12.000000000000
         C           -0.014750209511    -1.396740932215    -0.000108890011    12.000000000000
         C            0.080925790489     2.448580067785     0.000168109989    12.000000000000
         C           -2.270116209511    -0.553869932215     0.000151109989    12.000000000000
         C           -1.384994209511    -1.634891932215    -0.000003890011    12.000000000000
         C            1.950243790489     0.095657067785    -0.000168890011    12.000000000000
         H           -2.477193209511     1.586427067785     0.000323109989     1.007825032230
         H            0.702546790489    -2.213504932215    -0.000226890011     1.007825032230
         H            0.685122790489     2.677064067785    -0.883230890011     1.007825032230
         H           -0.774132209511     3.129560067785     0.000220109989     1.007825032230
         H            0.685150790489     2.676959067785     0.883576109989     1.007825032230
         H           -3.245309709511    -0.710192132215     0.000227409989     1.007825032230
         H           -1.763374209511    -2.654035932215    -0.000047890011     1.007825032230
         H            2.323128790489     1.136629067785    -0.000175890011     1.007825032230

  Basis Set: AUG-CC-PVTZ
    Blend: AUG-CC-PVTZ
  Basis Set: (AUG-CC-PVTZ AUX)
    Blend: AUG-CC-PVTZ-JKFIT
	 Reference Energy          =    -382.5884282720367651 [Eh]
	 Singles Energy            =      -0.0000000000000000 [Eh]
	 Same-Spin Energy          =      -0.4083249815133522 [Eh]
	 Opposite-Spin Energy      =      -1.2865079591117095 [Eh]
	 Correlation Energy        =      -1.6948329406250617 [Eh]
	 Total Energy              =    -384.2832612126618415 [Eh]

	 ================> DF-SCS-MP2 Energies <==================
	-----------------------------------------------------------
	 SCS Same-Spin Scale       =       0.3333333333333333 [-]
	 SCS Opposite-Spin Scale   =       1.2000000000000000 [-]
	 SCS Same-Spin Energy      =      -0.1361083271711174 [Eh]
	 SCS Opposite-Spin Energy  =      -1.5438095509340513 [Eh]
	 SCS Correlation Energy    =      -1.6799178781051687 [Eh]
	 SCS Total Energy          =    -384.2683461501419515 [Eh]
	-----------------------------------------------------------

  Dipole Moment: [D]
     X:    -2.7429      Y:     1.8795      Z:     0.0003     Total:     3.3251

*** Psi4 exiting successfully. Buy a developer a beer!
