                               Psi4 1.4a3.dev225

  ==> Input File <==

--------------------------------------------------------------------------
#psi4
#
memory 32 gb

molecule  {
0 1
  O        2.7820080    -0.8809860    -0.0002600
  C       -0.3718440     0.9737870     0.0000910
  C        0.5095440    -0.1275560    -0.0000600
  C       -1.7466600     0.7087270     0.0002000
  C        0.0166350    -1.4400920    -0.0001140
  C        0.1123110     2.4052290     0.0001630
  C       -2.2211013    -0.5504322     0.0001479
  C       -1.3536090    -1.6782430    -0.0000090
  C        1.9816290     0.0523060    -0.0001740
  H       -2.4458080     1.5430760     0.0003180
  H        0.7339320    -2.2568560    -0.0002320
  H        0.7165080     2.6337130    -0.8832360
  H       -0.7427470     3.0862090     0.0002150
  H        0.7165360     2.6336080     0.8835710
  H       -3.3126640    -0.7693710     0.0002300
  H       -1.7319890    -2.6973870    -0.0000530
  H        2.3545140     1.0932780    -0.0001810
units angstrom
no_reorient  #important for SAPT in psi4, default
symmetry c1  #important for SAPT in psi4, default
}

set PROPERTIES_ORIGIN ["COM"]
properties('MP2/aug-cc-pvtz', properties = ['dipole'])
--------------------------------------------------------------------------

    Molecular point group: c1
  Charge       = 0
  Multiplicity = 1
  Basis Set: AUG-CC-PVTZ
    Blend: AUG-CC-PVTZ
  Basis Set: (AUG-CC-PVTZ AUX)
    Blend: AUG-CC-PVTZ-JKFIT

    Orbital Energies [Eh]
    ---------------------

    Doubly Occupied:

       1A    -20.551928     2A    -11.334696     3A    -11.271661
       4A    -11.256401     5A    -11.250704     6A    -11.248189
       7A    -11.245950     8A    -11.244389     9A    -11.240634
      10A     -1.376687    11A     -1.174756    12A     -1.063050
      13A     -1.045124    14A     -0.957009    15A     -0.886501
      16A     -0.824053    17A     -0.785732    18A     -0.709172
      19A     -0.671991    20A     -0.643441    21A     -0.621290
      22A     -0.608965    23A     -0.598372    24A     -0.586539
      25A     -0.557450    26A     -0.538553    27A     -0.517663
      28A     -0.499870    29A     -0.493348    30A     -0.425402
      31A     -0.354996    32A     -0.339133

  @DF-RHF Final Energy:  -382.59133841065488

   => Energetics <=

    Nuclear Repulsion Energy =            402.4824489672272421
    One-Electron Energy =               -1316.3002736499415732
    Two-Electron Energy =                 531.2264862720594465
    Total Energy =                       -382.5913384106548847
  Basis Set: (AUG-CC-PVTZ AUX)
    Blend: AUG-CC-PVTZ-RI
    Molecular point group: c1

    Geometry (in Angstrom), charge = 0, multiplicity = 1:

       Center              X                  Y                   Z               Mass
    ------------   -----------------  -----------------  -----------------  -----------------
         O            2.749689535621    -0.842178703986    -0.000255144557    15.994914619570
         C           -0.404162464379     1.012594296014     0.000095855443    12.000000000000
         C            0.477225535621    -0.088748703986    -0.000055144557    12.000000000000
         C           -1.778978464379     0.747534296014     0.000204855443    12.000000000000
         C           -0.015683464379    -1.401284703986    -0.000109144557    12.000000000000
         C            0.079992535621     2.444036296014     0.000167855443    12.000000000000
         C           -2.253419764379    -0.511624903986     0.000152755443    12.000000000000
         C           -1.385927464379    -1.639435703986    -0.000004144557    12.000000000000
         C            1.949310535621     0.091113296014    -0.000169144557    12.000000000000
         H           -2.478126464379     1.581883296014     0.000322855443     1.007825032230
         H            0.701613535621    -2.218048703986    -0.000227144557     1.007825032230
         H            0.684189535621     2.672520296014    -0.883231144557     1.007825032230
         H           -0.775065464379     3.125016296014     0.000219855443     1.007825032230
         H            0.684217535621     2.672415296014     0.883575855443     1.007825032230
         H           -3.344982464379    -0.730563703986     0.000234855443     1.007825032230
         H           -1.764307464379    -2.658579703986    -0.000048144557     1.007825032230
         H            2.322195535621     1.132085296014    -0.000176144557     1.007825032230

  Basis Set: AUG-CC-PVTZ
    Blend: AUG-CC-PVTZ
  Basis Set: (AUG-CC-PVTZ AUX)
    Blend: AUG-CC-PVTZ-JKFIT
	 Reference Energy          =    -382.5913384106548847 [Eh]
	 Singles Energy            =      -0.0000000000000000 [Eh]
	 Same-Spin Energy          =      -0.4083917796115638 [Eh]
	 Opposite-Spin Energy      =      -1.2869779349223485 [Eh]
	 Correlation Energy        =      -1.6953697145339122 [Eh]
	 Total Energy              =    -384.2867081251887953 [Eh]

	 ================> DF-SCS-MP2 Energies <==================
	-----------------------------------------------------------
	 SCS Same-Spin Scale       =       0.3333333333333333 [-]
	 SCS Opposite-Spin Scale   =       1.2000000000000000 [-]
	 SCS Same-Spin Energy      =      -0.1361305932038546 [Eh]
	 SCS Opposite-Spin Energy  =      -1.5443735219068182 [Eh]
	 SCS Correlation Energy    =      -1.6805041151106728 [Eh]
	 SCS Total Energy          =    -384.2718425257655781 [Eh]
	-----------------------------------------------------------

  Dipole Moment: [D]
     X:    -2.7102      Y:     1.8892      Z:     0.0003     Total:     3.3037

*** Psi4 exiting successfully. Buy a developer a beer!
