                               Psi4 1.4a3.dev225

  ==> Input File <==

--------------------------------------------------------------------------
#psi4
#
memory 32 gb

molecule  {
0 1
  O        2.7820080    -0.8809860    -0.0002600
  C       -0.3718440     0.9737870     0.0000910
  C        0.5095440    -0.1275560    -0.0000600
  C       -1.7466600     0.7087270     0.0002000
  C        0.0166350    -1.4400920    -0.0001140
  C        0.1123110     2.4052290     0.0001630
  C       -2.2387310    -0.5972210     0.0001460
  C       -1.3536090    -1.6782430    -0.0000090
  C        1.9816290     0.0523060    -0.0001740
  H       -2.4458080     1.5430760     0.0003180
  H        0.7339320    -2.2568560    -0.0002320
  H        0.7275499     2.6378886    -0.8993804
  H       -0.7427470     3.0862090     0.0002150
  H        0.7165360     2.6336080     0.8835710
  H       -3.3126640    -0.7693710     0.0002300
  H       -1.7319890    -2.6973870    -0.0000530
  H        2.3545140     1.0932780    -0.0001810
units angstrom
no_reorient  #important for SAPT in psi4, default
symmetry c1  #important for SAPT in psi4, default
}

set PROPERTIES_ORIGIN ["COM"]
properties('MP2/aug-cc-pvtz', properties = ['dipole'])
--------------------------------------------------------------------------

    Molecular point group: c1
  Charge       = 0
  Multiplicity = 1
  Basis Set: AUG-CC-PVTZ
    Blend: AUG-CC-PVTZ
  Basis Set: (AUG-CC-PVTZ AUX)
    Blend: AUG-CC-PVTZ-JKFIT

    Orbital Energies [Eh]
    ---------------------

    Doubly Occupied:

       1A    -20.552095     2A    -11.334829     3A    -11.270255
       4A    -11.257643     5A    -11.252315     6A    -11.248783
       7A    -11.246159     8A    -11.245770     9A    -11.244418
      10A     -1.376824    11A     -1.172013    12A     -1.065020
      13A     -1.039905    14A     -0.954049    15A     -0.889900
      16A     -0.821626    17A     -0.787025    18A     -0.708440
      19A     -0.673756    20A     -0.644862    21A     -0.618532
      22A     -0.609419    23A     -0.595359    24A     -0.585330
      25A     -0.558234    26A     -0.537950    27A     -0.518625
      28A     -0.502599    29A     -0.491412    30A     -0.425455
      31A     -0.349032    32A     -0.342698

  @DF-RHF Final Energy:  -382.59372838074296

   => Energetics <=

    Nuclear Repulsion Energy =            401.8680143198691326
    One-Electron Energy =               -1315.0828209448818598
    Two-Electron Energy =                 530.6210782442697109
    Total Energy =                       -382.5937283807429594
  Basis Set: (AUG-CC-PVTZ AUX)
    Blend: AUG-CC-PVTZ-RI
    Molecular point group: c1

    Geometry (in Angstrom), charge = 0, multiplicity = 1:

       Center              X                  Y                   Z               Mass
    ------------   -----------------  -----------------  -----------------  -----------------
         O            2.751358969617    -0.837537117607    -0.000119430184    15.994914619570
         C           -0.402493030383     1.017235882393     0.000231569816    12.000000000000
         C            0.478894969617    -0.084107117607     0.000080569816    12.000000000000
         C           -1.777309030383     0.752175882393     0.000340569816    12.000000000000
         C           -0.014014030383    -1.396643117607     0.000026569816    12.000000000000
         C            0.081661969617     2.448677882393     0.000303569816    12.000000000000
         C           -2.269380030383    -0.553772117607     0.000286569816    12.000000000000
         C           -1.384258030383    -1.634794117607     0.000131569816    12.000000000000
         C            1.950979969617     0.095754882393    -0.000033430184    12.000000000000
         H           -2.476457030383     1.586524882393     0.000458569816     1.007825032230
         H            0.703282969617    -2.213407117607    -0.000091430184     1.007825032230
         H            0.696900869617     2.681337482393    -0.899239830184     1.007825032230
         H           -0.773396030383     3.129657882393     0.000355569816     1.007825032230
         H            0.685886969617     2.677056882393     0.883711569816     1.007825032230
         H           -3.343313030383    -0.725922117607     0.000370569816     1.007825032230
         H           -1.762638030383    -2.653938117607     0.000087569816     1.007825032230
         H            2.323864969617     1.136726882393    -0.000040430184     1.007825032230

  Basis Set: AUG-CC-PVTZ
    Blend: AUG-CC-PVTZ
  Basis Set: (AUG-CC-PVTZ AUX)
    Blend: AUG-CC-PVTZ-JKFIT
	 Reference Energy          =    -382.5937283807429594 [Eh]
	 Singles Energy            =      -0.0000000000000000 [Eh]
	 Same-Spin Energy          =      -0.4084711119895683 [Eh]
	 Opposite-Spin Energy      =      -1.2871443671135265 [Eh]
	 Correlation Energy        =      -1.6956154791030948 [Eh]
	 Total Energy              =    -384.2893438598460421 [Eh]

	 ================> DF-SCS-MP2 Energies <==================
	-----------------------------------------------------------
	 SCS Same-Spin Scale       =       0.3333333333333333 [-]
	 SCS Opposite-Spin Scale   =       1.2000000000000000 [-]
	 SCS Same-Spin Energy      =      -0.1361570373298561 [Eh]
	 SCS Opposite-Spin Energy  =      -1.5445732405362318 [Eh]
	 SCS Correlation Energy    =      -1.6807302778660880 [Eh]
	 SCS Total Energy          =    -384.2744586586090350 [Eh]
	-----------------------------------------------------------

  Dipole Moment: [D]
     X:    -2.7214      Y:     1.8806      Z:     0.0055     Total:     3.3080

*** Psi4 exiting successfully. Buy a developer a beer!
