                               Psi4 1.4a3.dev225

  ==> Input File <==

--------------------------------------------------------------------------
#psi4
#
memory 32 gb

molecule  {
0 1
  O        2.7820080    -0.8809860    -0.0002600
  C       -0.3718440     0.9737870     0.0000910
  C        0.5095440    -0.1275560    -0.0000600
  C       -1.6128469     0.6501375     0.0001835
  C        0.0166350    -1.4400920    -0.0001140
  C        0.1123110     2.4052290     0.0001630
  C       -2.2387310    -0.5972210     0.0001460
  C       -1.3536090    -1.6782430    -0.0000090
  C        1.9816290     0.0523060    -0.0001740
  H       -2.4458080     1.5430760     0.0003180
  H        0.7339320    -2.2568560    -0.0002320
  H        0.7165080     2.6337130    -0.8832360
  H       -0.7427470     3.0862090     0.0002150
  H        0.7165360     2.6336080     0.8835710
  H       -3.3126640    -0.7693710     0.0002300
  H       -1.7319890    -2.6973870    -0.0000530
  H        2.3545140     1.0932780    -0.0001810
units angstrom
no_reorient  #important for SAPT in psi4, default
symmetry c1  #important for SAPT in psi4, default
}

set PROPERTIES_ORIGIN ["COM"]
properties('MP2/aug-cc-pvtz', properties = ['dipole'])
--------------------------------------------------------------------------

    Molecular point group: c1
  Charge       = 0
  Multiplicity = 1
  Basis Set: AUG-CC-PVTZ
    Blend: AUG-CC-PVTZ
  Basis Set: (AUG-CC-PVTZ AUX)
    Blend: AUG-CC-PVTZ-JKFIT

    Orbital Energies [Eh]
    ---------------------

    Doubly Occupied:

       1A    -20.552074     2A    -11.334227     3A    -11.259282
       4A    -11.253307     5A    -11.252011     6A    -11.249490
       7A    -11.246112     8A    -11.243700     9A    -11.243480
      10A     -1.376686    11A     -1.187916    12A     -1.072275
      13A     -1.039202    14A     -0.958376    15A     -0.900536
      16A     -0.817410    17A     -0.785270    18A     -0.712788
      19A     -0.674259    20A     -0.648894    21A     -0.615755
      22A     -0.600664    23A     -0.598086    24A     -0.588896
      25A     -0.549636    26A     -0.539755    27A     -0.536228
      28A     -0.498785    29A     -0.471852    30A     -0.425487
      31A     -0.357991    32A     -0.345033

  @DF-RHF Final Energy:  -382.56621013454594

   => Energetics <=

    Nuclear Repulsion Energy =            404.5827949429558430
    One-Electron Energy =               -1320.4270840621384195
    Two-Electron Energy =                 533.2780789846366361
    Total Energy =                       -382.5662101345459405
  Basis Set: (AUG-CC-PVTZ AUX)
    Blend: AUG-CC-PVTZ-RI
    Molecular point group: c1

    Geometry (in Angstrom), charge = 0, multiplicity = 1:

       Center              X                  Y                   Z               Mass
    ------------   -----------------  -----------------  -----------------  -----------------
         O            2.738076761515    -0.831645922250    -0.000253305439    15.994914619570
         C           -0.415775238485     1.023127077750     0.000097694561    12.000000000000
         C            0.465612761515    -0.078215922250    -0.000053305439    12.000000000000
         C           -1.656778138485     0.699477577750     0.000190194561    12.000000000000
         C           -0.027296238485    -1.390751922250    -0.000107305439    12.000000000000
         C            0.068379761515     2.454569077750     0.000169694561    12.000000000000
         C           -2.282662238485    -0.547880922250     0.000152694561    12.000000000000
         C           -1.397540238485    -1.628902922250    -0.000002305439    12.000000000000
         C            1.937697761515     0.101646077750    -0.000167305439    12.000000000000
         H           -2.489739238485     1.592416077750     0.000324694561     1.007825032230
         H            0.690000761515    -2.207515922250    -0.000225305439     1.007825032230
         H            0.672576761515     2.683053077750    -0.883229305439     1.007825032230
         H           -0.786678238485     3.135549077750     0.000221694561     1.007825032230
         H            0.672604761515     2.682948077750     0.883577694561     1.007825032230
         H           -3.356595238485    -0.720030922250     0.000236694561     1.007825032230
         H           -1.775920238485    -2.648046922250    -0.000046305439     1.007825032230
         H            2.310582761515     1.142618077750    -0.000174305439     1.007825032230

  Basis Set: AUG-CC-PVTZ
    Blend: AUG-CC-PVTZ
  Basis Set: (AUG-CC-PVTZ AUX)
    Blend: AUG-CC-PVTZ-JKFIT
	 Reference Energy          =    -382.5662101345459405 [Eh]
	 Singles Energy            =      -0.0000000000000000 [Eh]
	 Same-Spin Energy          =      -0.4092705054713087 [Eh]
	 Opposite-Spin Energy      =      -1.2884665520428484 [Eh]
	 Correlation Energy        =      -1.6977370575141570 [Eh]
	 Total Energy              =    -384.2639471920600727 [Eh]

	 ================> DF-SCS-MP2 Energies <==================
	-----------------------------------------------------------
	 SCS Same-Spin Scale       =       0.3333333333333333 [-]
	 SCS Opposite-Spin Scale   =       1.2000000000000000 [-]
	 SCS Same-Spin Energy      =      -0.1364235018237696 [Eh]
	 SCS Opposite-Spin Energy  =      -1.5461598624514181 [Eh]
	 SCS Correlation Energy    =      -1.6825833642751877 [Eh]
	 SCS Total Energy          =    -384.2487934988211009 [Eh]
	-----------------------------------------------------------

  Dipole Moment: [D]
     X:    -2.6556      Y:     1.7319      Z:     0.0003     Total:     3.1704

*** Psi4 exiting successfully. Buy a developer a beer!
