                               Psi4 1.4a3.dev225

  ==> Input File <==

--------------------------------------------------------------------------
#psi4
#
memory 32 gb

molecule  {
0 1
  O        2.7820080    -0.8809860    -0.0002600
  C       -0.3718440     0.9737870     0.0000910
  C        0.5095440    -0.1275560    -0.0000600
  C       -1.7466600     0.7087270     0.0002000
  C        0.0166350    -1.4400920    -0.0001140
  C        0.1123110     2.4052290     0.0001630
  C       -2.2387310    -0.5972210     0.0001460
  C       -1.3536090    -1.6782430    -0.0000090
  C        1.9816290     0.0523060    -0.0001740
  H       -2.4458080     1.5430760     0.0003180
  H        0.7339320    -2.2568560    -0.0002320
  H        0.7165080     2.6337130    -0.8832360
  H       -0.7427470     3.0862090     0.0002150
  H        0.7165360     2.6336080     0.8835710
  H       -3.4114035    -0.7851988     0.0002377
  H       -1.7319890    -2.6973870    -0.0000530
  H        2.3545140     1.0932780    -0.0001810
units angstrom
no_reorient  #important for SAPT in psi4, default
symmetry c1  #important for SAPT in psi4, default
}

set PROPERTIES_ORIGIN ["COM"]
properties('MP2/aug-cc-pvtz', properties = ['dipole'])
--------------------------------------------------------------------------

    Molecular point group: c1
  Charge       = 0
  Multiplicity = 1
  Basis Set: AUG-CC-PVTZ
    Blend: AUG-CC-PVTZ
  Basis Set: (AUG-CC-PVTZ AUX)
    Blend: AUG-CC-PVTZ-JKFIT

    Orbital Energies [Eh]
    ---------------------

    Doubly Occupied:

       1A    -20.552414     2A    -11.335197     3A    -11.270831
       4A    -11.268705     5A    -11.253002     6A    -11.249160
       7A    -11.246635     8A    -11.245364     9A    -11.244217
      10A     -1.377145    11A     -1.172261    12A     -1.064932
      13A     -1.038901    14A     -0.955803    15A     -0.886635
      16A     -0.821800    17A     -0.784518    18A     -0.707109
      19A     -0.670793    20A     -0.637186    21A     -0.618371
      22A     -0.607823    23A     -0.597960    24A     -0.586124
      25A     -0.558030    26A     -0.538806    27A     -0.511241
      28A     -0.503054    29A     -0.492152    30A     -0.425751
      31A     -0.349514    32A     -0.343357

  @DF-RHF Final Energy:  -382.58685889747255

   => Energetics <=

    Nuclear Repulsion Energy =            401.4752362428944252
    One-Electron Energy =               -1314.2946100530998592
    Two-Electron Energy =                 530.2325149127328814
    Total Energy =                       -382.5868588974725526
  Basis Set: (AUG-CC-PVTZ AUX)
    Blend: AUG-CC-PVTZ-RI
    Molecular point group: c1

    Geometry (in Angstrom), charge = 0, multiplicity = 1:

       Center              X                  Y                   Z               Mass
    ------------   -----------------  -----------------  -----------------  -----------------
         O            2.752280531612    -0.837369198695    -0.000255019286    15.994914619570
         C           -0.401571468388     1.017403801305     0.000095980714    12.000000000000
         C            0.479816531612    -0.083939198695    -0.000055019286    12.000000000000
         C           -1.776387468388     0.752343801305     0.000204980714    12.000000000000
         C           -0.013092468388    -1.396475198695    -0.000109019286    12.000000000000
         C            0.082583531612     2.448845801305     0.000167980714    12.000000000000
         C           -2.268458468388    -0.553604198695     0.000150980714    12.000000000000
         C           -1.383336468388    -1.634626198695    -0.000004019286    12.000000000000
         C            1.951901531612     0.095922801305    -0.000169019286    12.000000000000
         H           -2.475535468388     1.586692801305     0.000322980714     1.007825032230
         H            0.704204531612    -2.213239198695    -0.000227019286     1.007825032230
         H            0.686780531612     2.677329801305    -0.883231019286     1.007825032230
         H           -0.772474468388     3.129825801305     0.000219980714     1.007825032230
         H            0.686808531612     2.677224801305     0.883575980714     1.007825032230
         H           -3.441130968388    -0.741581998695     0.000242680714     1.007825032230
         H           -1.761716468388    -2.653770198695    -0.000048019286     1.007825032230
         H            2.324786531612     1.136894801305    -0.000176019286     1.007825032230

  Basis Set: AUG-CC-PVTZ
    Blend: AUG-CC-PVTZ
  Basis Set: (AUG-CC-PVTZ AUX)
    Blend: AUG-CC-PVTZ-JKFIT
	 Reference Energy          =    -382.5868588974725526 [Eh]
	 Singles Energy            =      -0.0000000000000000 [Eh]
	 Same-Spin Energy          =      -0.4086907016323894 [Eh]
	 Opposite-Spin Energy      =      -1.2879805021513240 [Eh]
	 Correlation Energy        =      -1.6966712037837133 [Eh]
	 Total Energy              =    -384.2835301012562468 [Eh]

	 ================> DF-SCS-MP2 Energies <==================
	-----------------------------------------------------------
	 SCS Same-Spin Scale       =       0.3333333333333333 [-]
	 SCS Opposite-Spin Scale   =       1.2000000000000000 [-]
	 SCS Same-Spin Energy      =      -0.1362302338774631 [Eh]
	 SCS Opposite-Spin Energy  =      -1.5455766025815887 [Eh]
	 SCS Correlation Energy    =      -1.6818068364590517 [Eh]
	 SCS Total Energy          =    -384.2686657339315843 [Eh]
	-----------------------------------------------------------

  Dipole Moment: [D]
     X:    -2.6719      Y:     1.8971      Z:     0.0003     Total:     3.2769

*** Psi4 exiting successfully. Buy a developer a beer!
