                               Psi4 1.4a3.dev225

  ==> Input File <==

--------------------------------------------------------------------------
#psi4
#
memory 32 gb

molecule  {
0 1
  O        2.7820080    -0.8809860    -0.0002600
  C       -0.3718440     0.9737870     0.0000910
  C        0.5095440    -0.1275560    -0.0000600
  C       -1.7466600     0.7087270     0.0002000
  C        0.0166350    -1.4400920    -0.0001140
  C        0.1123110     2.4052290     0.0001630
  C       -2.2387310    -0.5972210     0.0001460
  C       -1.3536090    -1.6782430    -0.0000090
  C        1.9816290     0.0523060    -0.0001740
  H       -2.4458080     1.5430760     0.0003180
  H        0.7339320    -2.2568560    -0.0002320
  H        0.6612986     2.6128349    -0.8025141
  H       -0.7427470     3.0862090     0.0002150
  H        0.7165360     2.6336080     0.8835710
  H       -3.3126640    -0.7693710     0.0002300
  H       -1.7319890    -2.6973870    -0.0000530
  H        2.3545140     1.0932780    -0.0001810
units angstrom
no_reorient  #important for SAPT in psi4, default
symmetry c1  #important for SAPT in psi4, default
}

set PROPERTIES_ORIGIN ["COM"]
properties('MP2/aug-cc-pvtz', properties = ['dipole'])
--------------------------------------------------------------------------

    Molecular point group: c1
  Charge       = 0
  Multiplicity = 1
  Basis Set: AUG-CC-PVTZ
    Blend: AUG-CC-PVTZ
  Basis Set: (AUG-CC-PVTZ AUX)
    Blend: AUG-CC-PVTZ-JKFIT

    Orbital Energies [Eh]
    ---------------------

    Doubly Occupied:

       1A    -20.552152     2A    -11.335111     3A    -11.269528
       4A    -11.257350     5A    -11.252096     6A    -11.248569
       7A    -11.245171     8A    -11.244093     9A    -11.231625
      10A     -1.376916    11A     -1.172008    12A     -1.067790
      13A     -1.039841    14A     -0.962749    15A     -0.890479
      16A     -0.823124    17A     -0.787676    18A     -0.709630
      19A     -0.673480    20A     -0.646156    21A     -0.618881
      22A     -0.611822    23A     -0.608119    24A     -0.586041
      25A     -0.559791    26A     -0.540091    27A     -0.519257
      28A     -0.502104    29A     -0.491975    30A     -0.425734
      31A     -0.348830    32A     -0.342980

  @DF-RHF Final Energy:  -382.58829520888418

   => Energetics <=

    Nuclear Repulsion Energy =            402.4067225882342314
    One-Electron Energy =               -1316.1076990526996724
    Two-Electron Energy =                 531.1126812555811512
    Total Energy =                       -382.5882952088842330
  Basis Set: (AUG-CC-PVTZ AUX)
    Blend: AUG-CC-PVTZ-RI
    Molecular point group: c1

    Geometry (in Angstrom), charge = 0, multiplicity = 1:

       Center              X                  Y                   Z               Mass
    ------------   -----------------  -----------------  -----------------  -----------------
         O            2.751915117382    -0.837326803858    -0.000932576133    15.994914619570
         C           -0.401936882618     1.017446196142    -0.000581576133    12.000000000000
         C            0.479451117382    -0.083896803858    -0.000732576133    12.000000000000
         C           -1.776752882618     0.752386196142    -0.000472576133    12.000000000000
         C           -0.013457882618    -1.396432803858    -0.000786576133    12.000000000000
         C            0.082218117382     2.448888196142    -0.000509576133    12.000000000000
         C           -2.268823882618    -0.553561803858    -0.000526576133    12.000000000000
         C           -1.383701882618    -1.634583803858    -0.000681576133    12.000000000000
         C            1.951536117382     0.095965196142    -0.000846576133    12.000000000000
         H           -2.475900882618     1.586735196142    -0.000354576133     1.007825032230
         H            0.703839117382    -2.213196803858    -0.000904576133     1.007825032230
         H            0.631205717382     2.656494096142    -0.803186676133     1.007825032230
         H           -0.772839882618     3.129868196142    -0.000457576133     1.007825032230
         H            0.686443117382     2.677267196142     0.882898423867     1.007825032230
         H           -3.342756882618    -0.725711803858    -0.000442576133     1.007825032230
         H           -1.762081882618    -2.653727803858    -0.000725576133     1.007825032230
         H            2.324421117382     1.136937196142    -0.000853576133     1.007825032230

  Basis Set: AUG-CC-PVTZ
    Blend: AUG-CC-PVTZ
  Basis Set: (AUG-CC-PVTZ AUX)
    Blend: AUG-CC-PVTZ-JKFIT
	 Reference Energy          =    -382.5882952088841762 [Eh]
	 Singles Energy            =      -0.0000000000000000 [Eh]
	 Same-Spin Energy          =      -0.4084629899312034 [Eh]
	 Opposite-Spin Energy      =      -1.2865136056255975 [Eh]
	 Correlation Energy        =      -1.6949765955568008 [Eh]
	 Total Energy              =    -384.2832718044409717 [Eh]

	 ================> DF-SCS-MP2 Energies <==================
	-----------------------------------------------------------
	 SCS Same-Spin Scale       =       0.3333333333333333 [-]
	 SCS Opposite-Spin Scale   =       1.2000000000000000 [-]
	 SCS Same-Spin Energy      =      -0.1361543299770678 [Eh]
	 SCS Opposite-Spin Energy  =      -1.5438163267507170 [Eh]
	 SCS Correlation Energy    =      -1.6799706567277848 [Eh]
	 SCS Total Energy          =    -384.2682658656119656 [Eh]
	-----------------------------------------------------------

  Dipole Moment: [D]
     X:    -2.6972      Y:     1.9082      Z:    -0.0194     Total:     3.3040

*** Psi4 exiting successfully. Buy a developer a beer!
