                               Psi4 1.4a3.dev225

  ==> Input File <==

--------------------------------------------------------------------------
#psi4
#
memory 32 gb

molecule  {
0 1
  O        2.7820080    -0.8809860    -0.0002600
  C       -0.3718440     0.9737870     0.0000910
  C        0.5095440    -0.1275560    -0.0000600
  C       -1.7510765     0.7327612     0.0002024
  C        0.0166350    -1.4400920    -0.0001140
  C        0.1123110     2.4052290     0.0001630
  C       -2.2387310    -0.5972210     0.0001460
  C       -1.3536090    -1.6782430    -0.0000090
  C        1.9816290     0.0523060    -0.0001740
  H       -2.4458080     1.5430760     0.0003180
  H        0.7339320    -2.2568560    -0.0002320
  H        0.7165080     2.6337130    -0.8832360
  H       -0.7427470     3.0862090     0.0002150
  H        0.7165360     2.6336080     0.8835710
  H       -3.3126640    -0.7693710     0.0002300
  H       -1.7319890    -2.6973870    -0.0000530
  H        2.3545140     1.0932780    -0.0001810
units angstrom
no_reorient  #important for SAPT in psi4, default
symmetry c1  #important for SAPT in psi4, default
}

set PROPERTIES_ORIGIN ["COM"]
properties('MP2/aug-cc-pvtz', properties = ['dipole'])
--------------------------------------------------------------------------

    Molecular point group: c1
  Charge       = 0
  Multiplicity = 1
  Basis Set: AUG-CC-PVTZ
    Blend: AUG-CC-PVTZ
  Basis Set: (AUG-CC-PVTZ AUX)
    Blend: AUG-CC-PVTZ-JKFIT

    Orbital Energies [Eh]
    ---------------------

    Doubly Occupied:

       1A    -20.551852     2A    -11.334917     3A    -11.270114
       4A    -11.260235     5A    -11.253242     6A    -11.248756
       7A    -11.246011     8A    -11.244576     9A    -11.243009
      10A     -1.376679    11A     -1.170411    12A     -1.065012
      13A     -1.038840    14A     -0.954508    15A     -0.889872
      16A     -0.821910    17A     -0.788182    18A     -0.707991
      19A     -0.673463    20A     -0.646260    21A     -0.618490
      22A     -0.610790    23A     -0.597040    24A     -0.586158
      25A     -0.559150    26A     -0.538168    27A     -0.517725
      28A     -0.503268    29A     -0.490105    30A     -0.425466
      31A     -0.347046    32A     -0.343595

  @DF-RHF Final Energy:  -382.59339888989393

   => Energetics <=

    Nuclear Repulsion Energy =            401.6455026318035380
    One-Electron Energy =               -1314.6321243030674850
    Two-Electron Energy =                 530.3932227813700138
    Total Energy =                       -382.5933988898939333
  Basis Set: (AUG-CC-PVTZ AUX)
    Blend: AUG-CC-PVTZ-RI
    Molecular point group: c1

    Geometry (in Angstrom), charge = 0, multiplicity = 1:

       Center              X                  Y                   Z               Mass
    ------------   -----------------  -----------------  -----------------  -----------------
         O            2.751893099474    -0.839904334070    -0.000255194533    15.994914619570
         C           -0.401958900526     1.014868665930     0.000095805467    12.000000000000
         C            0.479429099474    -0.086474334070    -0.000055194533    12.000000000000
         C           -1.781191400526     0.773842865930     0.000207205467    12.000000000000
         C           -0.013479900526    -1.399010334070    -0.000109194533    12.000000000000
         C            0.082196099474     2.446310665930     0.000167805467    12.000000000000
         C           -2.268845900526    -0.556139334070     0.000150805467    12.000000000000
         C           -1.383723900526    -1.637161334070    -0.000004194533    12.000000000000
         C            1.951514099474     0.093387665930    -0.000169194533    12.000000000000
         H           -2.475922900526     1.584157665930     0.000322805467     1.007825032230
         H            0.703817099474    -2.215774334070    -0.000227194533     1.007825032230
         H            0.686393099474     2.674794665930    -0.883231194533     1.007825032230
         H           -0.772861900526     3.127290665930     0.000219805467     1.007825032230
         H            0.686421099474     2.674689665930     0.883575805467     1.007825032230
         H           -3.342778900526    -0.728289334070     0.000234805467     1.007825032230
         H           -1.762103900526    -2.656305334070    -0.000048194533     1.007825032230
         H            2.324399099474     1.134359665930    -0.000176194533     1.007825032230

  Basis Set: AUG-CC-PVTZ
    Blend: AUG-CC-PVTZ
  Basis Set: (AUG-CC-PVTZ AUX)
    Blend: AUG-CC-PVTZ-JKFIT
	 Reference Energy          =    -382.5933988898939333 [Eh]
	 Singles Energy            =      -0.0000000000000000 [Eh]
	 Same-Spin Energy          =      -0.4084028225932867 [Eh]
	 Opposite-Spin Energy      =      -1.2870909356335776 [Eh]
	 Correlation Energy        =      -1.6954937582268643 [Eh]
	 Total Energy              =    -384.2888926481207932 [Eh]

	 ================> DF-SCS-MP2 Energies <==================
	-----------------------------------------------------------
	 SCS Same-Spin Scale       =       0.3333333333333333 [-]
	 SCS Opposite-Spin Scale   =       1.2000000000000000 [-]
	 SCS Same-Spin Energy      =      -0.1361342741977622 [Eh]
	 SCS Opposite-Spin Energy  =      -1.5445091227602930 [Eh]
	 SCS Correlation Energy    =      -1.6806433969580552 [Eh]
	 SCS Total Energy          =    -384.2740422868519659 [Eh]
	-----------------------------------------------------------

  Dipole Moment: [D]
     X:    -2.7284      Y:     1.8821      Z:     0.0003     Total:     3.3146

*** Psi4 exiting successfully. Buy a developer a beer!
