                               Psi4 1.4a3.dev225

  ==> Input File <==

--------------------------------------------------------------------------
#psi4
#
memory 32 gb

molecule  {
0 1
  O        2.7820080    -0.8809860    -0.0002600
  C       -0.3718440     0.9737870     0.0000910
  C        0.5095440    -0.1275560    -0.0000600
  C       -1.7466600     0.7087270     0.0002000
  C        0.0166350    -1.4400920    -0.0001140
  C        0.1123110     2.4052290     0.0001630
  C       -2.2387310    -0.5972210     0.0001460
  C       -1.3536090    -1.6782430    -0.0000090
  C        1.9816290     0.0523060    -0.0001740
  H       -2.4458080     1.5430760     0.0003180
  H        0.7339320    -2.2568560    -0.0002320
  H        0.8269268     2.6754691    -1.0446798
  H       -0.7427470     3.0862090     0.0002150
  H        0.7165360     2.6336080     0.8835710
  H       -3.3126640    -0.7693710     0.0002300
  H       -1.7319890    -2.6973870    -0.0000530
  H        2.3545140     1.0932780    -0.0001810
units angstrom
no_reorient  #important for SAPT in psi4, default
symmetry c1  #important for SAPT in psi4, default
}

set PROPERTIES_ORIGIN ["COM"]
properties('MP2/aug-cc-pvtz', properties = ['dipole'])
--------------------------------------------------------------------------

    Molecular point group: c1
  Charge       = 0
  Multiplicity = 1
  Basis Set: AUG-CC-PVTZ
    Blend: AUG-CC-PVTZ
  Basis Set: (AUG-CC-PVTZ AUX)
    Blend: AUG-CC-PVTZ-JKFIT

    Orbital Energies [Eh]
    ---------------------

    Doubly Occupied:

       1A    -20.552178     2A    -11.334496     3A    -11.271783
       4A    -11.265993     5A    -11.258373     6A    -11.252926
       7A    -11.249585     8A    -11.247262     9A    -11.245404
      10A     -1.376824    11A     -1.172673    12A     -1.063584
      13A     -1.040546    14A     -0.946715    15A     -0.889462
      16A     -0.820759    17A     -0.786669    18A     -0.707855
      19A     -0.674524    20A     -0.644791    21A     -0.619200
      22A     -0.609946    23A     -0.590011    24A     -0.577181
      25A     -0.553571    26A     -0.531390    27A     -0.514692
      28A     -0.503692    29A     -0.489044    30A     -0.425042
      31A     -0.349640    32A     -0.342403

  @DF-RHF Final Energy:  -382.57423289644078

   => Energetics <=

    Nuclear Repulsion Energy =            401.1864794129519396
    One-Electron Energy =               -1313.7049939321261718
    Two-Electron Energy =                 529.9442816227334561
    Total Energy =                       -382.5742328964407761
  Basis Set: (AUG-CC-PVTZ AUX)
    Blend: AUG-CC-PVTZ-RI
    Molecular point group: c1

    Geometry (in Angstrom), charge = 0, multiplicity = 1:

       Center              X                  Y                   Z               Mass
    ------------   -----------------  -----------------  -----------------  -----------------
         O            2.750524748389    -0.837852587810     0.001100288321    15.994914619570
         C           -0.403327251611     1.016920412190     0.001451288321    12.000000000000
         C            0.478060748389    -0.084422587810     0.001300288321    12.000000000000
         C           -1.778143251611     0.751860412190     0.001560288321    12.000000000000
         C           -0.014848251611    -1.396958587810     0.001246288321    12.000000000000
         C            0.080827748389     2.448362412190     0.001523288321    12.000000000000
         C           -2.270214251611    -0.554087587810     0.001506288321    12.000000000000
         C           -1.385092251611    -1.635109587810     0.001351288321    12.000000000000
         C            1.950145748389     0.095439412190     0.001186288321    12.000000000000
         H           -2.477291251611     1.586209412190     0.001678288321     1.007825032230
         H            0.702448748389    -2.213722587810     0.001128288321     1.007825032230
         H            0.795443548389     2.718602512190    -1.043319511679     1.007825032230
         H           -0.774230251611     3.129342412190     0.001575288321     1.007825032230
         H            0.685052748389     2.676741412190     0.884931288321     1.007825032230
         H           -3.344147251611    -0.726237587810     0.001590288321     1.007825032230
         H           -1.763472251611    -2.654253587810     0.001307288321     1.007825032230
         H            2.323030748389     1.136411412190     0.001179288321     1.007825032230

  Basis Set: AUG-CC-PVTZ
    Blend: AUG-CC-PVTZ
  Basis Set: (AUG-CC-PVTZ AUX)
    Blend: AUG-CC-PVTZ-JKFIT
	 Reference Energy          =    -382.5742328964407761 [Eh]
	 Singles Energy            =      -0.0000000000000000 [Eh]
	 Same-Spin Energy          =      -0.4085326450554287 [Eh]
	 Opposite-Spin Energy      =      -1.2886301726189633 [Eh]
	 Correlation Energy        =      -1.6971628176743920 [Eh]
	 Total Energy              =    -384.2713957141151582 [Eh]

	 ================> DF-SCS-MP2 Energies <==================
	-----------------------------------------------------------
	 SCS Same-Spin Scale       =       0.3333333333333333 [-]
	 SCS Opposite-Spin Scale   =       1.2000000000000000 [-]
	 SCS Same-Spin Energy      =      -0.1361775483518096 [Eh]
	 SCS Opposite-Spin Energy  =      -1.5463562071427559 [Eh]
	 SCS Correlation Energy    =      -1.6825337554945654 [Eh]
	 SCS Total Energy          =    -384.2567666519353224 [Eh]
	-----------------------------------------------------------

  Dipole Moment: [D]
     X:    -2.7815      Y:     1.8058      Z:     0.0716     Total:     3.3170

*** Psi4 exiting successfully. Buy a developer a beer!
