                               Psi4 1.4a3.dev225

  ==> Input File <==

--------------------------------------------------------------------------
#psi4
#
memory 32 gb

molecule  {
0 1
  O        2.7820080    -0.8809860    -0.0002600
  C       -0.3718440     0.9737870     0.0000910
  C        0.5095440    -0.1275560    -0.0000600
  C       -1.7466600     0.7087270     0.0002000
  C        0.0166350    -1.4400920    -0.0001140
  C        0.1123110     2.4052290     0.0001630
  C       -2.2387310    -0.5972210     0.0001460
  C       -1.3536090    -1.6782430    -0.0000090
  C        1.9816290     0.0523060    -0.0001740
  H       -2.4458080     1.5430760     0.0003180
  H        0.7339320    -2.2568560    -0.0002320
  H        0.7165080     2.6337130    -0.8832360
  H       -0.7427470     3.0862090     0.0002150
  H        0.7165360     2.6336080     0.8835710
  H       -3.3126640    -0.7693710     0.0002300
  H       -1.7319890    -2.6973870    -0.0000530
  H        2.3882366     1.1874204    -0.0001816
units angstrom
no_reorient  #important for SAPT in psi4, default
symmetry c1  #important for SAPT in psi4, default
}

set PROPERTIES_ORIGIN ["COM"]
properties('MP2/aug-cc-pvtz', properties = ['dipole'])
--------------------------------------------------------------------------

    Molecular point group: c1
  Charge       = 0
  Multiplicity = 1
  Basis Set: AUG-CC-PVTZ
    Blend: AUG-CC-PVTZ
  Basis Set: (AUG-CC-PVTZ AUX)
    Blend: AUG-CC-PVTZ-JKFIT

    Orbital Energies [Eh]
    ---------------------

    Doubly Occupied:

       1A    -20.554538     2A    -11.345785     3A    -11.270706
       4A    -11.258273     5A    -11.253453     6A    -11.250667
       7A    -11.246040     8A    -11.244971     9A    -11.243254
      10A     -1.378297    11A     -1.172623    12A     -1.065423
      13A     -1.040494    14A     -0.955168    15A     -0.884943
      16A     -0.822499    17A     -0.777732    18A     -0.703584
      19A     -0.672455    20A     -0.644727    21A     -0.615808
      22A     -0.607427    23A     -0.597202    24A     -0.585853
      25A     -0.558545    26A     -0.539735    27A     -0.519269
      28A     -0.503042    29A     -0.492495    30A     -0.420929
      31A     -0.350000    32A     -0.343214

  @DF-RHF Final Energy:  -382.58699180225267

   => Energetics <=

    Nuclear Repulsion Energy =            401.5176960245746614
    One-Electron Energy =               -1314.3710709439851598
    Two-Electron Energy =                 530.2663831171578295
    Total Energy =                       -382.5869918022526690
  Basis Set: (AUG-CC-PVTZ AUX)
    Blend: AUG-CC-PVTZ-RI
    Molecular point group: c1

    Geometry (in Angstrom), charge = 0, multiplicity = 1:

       Center              X                  Y                   Z               Mass
    ------------   -----------------  -----------------  -----------------  -----------------
         O            2.751168576061    -0.838292345576    -0.000254949612    15.994914619570
         C           -0.402683423939     1.016480654424     0.000096050388    12.000000000000
         C            0.478704576061    -0.084862345576    -0.000054949612    12.000000000000
         C           -1.777499423939     0.751420654425     0.000205050388    12.000000000000
         C           -0.014204423939    -1.397398345575    -0.000108949612    12.000000000000
         C            0.081471576061     2.447922654424     0.000168050388    12.000000000000
         C           -2.269570423939    -0.554527345575     0.000151050388    12.000000000000
         C           -1.384448423939    -1.635549345575    -0.000003949612    12.000000000000
         C            1.950789576061     0.094999654424    -0.000168949612    12.000000000000
         H           -2.476647423939     1.585769654424     0.000323050388     1.007825032230
         H            0.703092576061    -2.214162345576    -0.000226949612     1.007825032230
         H            0.685668576061     2.676406654424    -0.883230949612     1.007825032230
         H           -0.773586423939     3.128902654424     0.000220050388     1.007825032230
         H            0.685696576061     2.676301654424     0.883576050388     1.007825032230
         H           -3.343503423939    -0.726677345576     0.000235050388     1.007825032230
         H           -1.762828423939    -2.654693345575    -0.000047949612     1.007825032230
         H            2.357397176061     1.230114054424    -0.000176549612     1.007825032230

  Basis Set: AUG-CC-PVTZ
    Blend: AUG-CC-PVTZ
  Basis Set: (AUG-CC-PVTZ AUX)
    Blend: AUG-CC-PVTZ-JKFIT
	 Reference Energy          =    -382.5869918022526690 [Eh]
	 Singles Energy            =      -0.0000000000000000 [Eh]
	 Same-Spin Energy          =      -0.4090050033480959 [Eh]
	 Opposite-Spin Energy      =      -1.2882825338878647 [Eh]
	 Correlation Energy        =      -1.6972875372359606 [Eh]
	 Total Energy              =    -384.2842793394886485 [Eh]

	 ================> DF-SCS-MP2 Energies <==================
	-----------------------------------------------------------
	 SCS Same-Spin Scale       =       0.3333333333333333 [-]
	 SCS Opposite-Spin Scale   =       1.2000000000000000 [-]
	 SCS Same-Spin Energy      =      -0.1363350011160319 [Eh]
	 SCS Opposite-Spin Energy  =      -1.5459390406654376 [Eh]
	 SCS Correlation Energy    =      -1.6822740417814697 [Eh]
	 SCS Total Energy          =    -384.2692658440341233 [Eh]
	-----------------------------------------------------------

  Dipole Moment: [D]
     X:    -2.7683      Y:     1.7781      Z:     0.0003     Total:     3.2901

*** Psi4 exiting successfully. Buy a developer a beer!
