                               Psi4 1.4a3.dev225

  ==> Input File <==

--------------------------------------------------------------------------
#psi4
#
memory 32 gb

molecule  {
0 1
  O        2.7820080    -0.8809860    -0.0002600
  C       -0.3718440     0.9737870     0.0000910
  C        0.5095440    -0.1275560    -0.0000600
  C       -1.7466600     0.7087270     0.0002000
  C        0.0166350    -1.4400920    -0.0001140
  C        0.1123110     2.4052290     0.0001630
  C       -2.1682123    -0.4100657     0.0001537
  C       -1.3536090    -1.6782430    -0.0000090
  C        1.9816290     0.0523060    -0.0001740
  H       -2.4458080     1.5430760     0.0003180
  H        0.7339320    -2.2568560    -0.0002320
  H        0.7165080     2.6337130    -0.8832360
  H       -0.7427470     3.0862090     0.0002150
  H        0.7165360     2.6336080     0.8835710
  H       -3.3126640    -0.7693710     0.0002300
  H       -1.7319890    -2.6973870    -0.0000530
  H        2.3545140     1.0932780    -0.0001810
units angstrom
no_reorient  #important for SAPT in psi4, default
symmetry c1  #important for SAPT in psi4, default
}

set PROPERTIES_ORIGIN ["COM"]
properties('MP2/aug-cc-pvtz', properties = ['dipole'])
--------------------------------------------------------------------------

    Molecular point group: c1
  Charge       = 0
  Multiplicity = 1
  Basis Set: AUG-CC-PVTZ
    Blend: AUG-CC-PVTZ
  Basis Set: (AUG-CC-PVTZ AUX)
    Blend: AUG-CC-PVTZ-JKFIT

    Orbital Energies [Eh]
    ---------------------

    Doubly Occupied:

       1A    -20.551823     2A    -11.334485     3A    -11.276590
       4A    -11.250975     5A    -11.249633     6A    -11.247787
       7A    -11.246335     8A    -11.245674     9A    -11.221800
      10A     -1.376594    11A     -1.188810    12A     -1.069109
      13A     -1.054403    14A     -0.959739    15A     -0.877846
      16A     -0.829260    17A     -0.781130    18A     -0.709990
      19A     -0.673701    20A     -0.639233    21A     -0.626975
      22A     -0.609640    23A     -0.601471    24A     -0.586204
      25A     -0.558065    26A     -0.539991    27A     -0.522533
      28A     -0.503593    29A     -0.465137    30A     -0.425106
      31A     -0.377639    32A     -0.328902

  @DF-RHF Final Energy:  -382.53224778411078

   => Energetics <=

    Nuclear Repulsion Energy =            404.3354121733315196
    One-Electron Energy =               -1319.8749746990233689
    Two-Electron Energy =                 533.0073147415811263
    Total Energy =                       -382.5322477841107229
  Basis Set: (AUG-CC-PVTZ AUX)
    Blend: AUG-CC-PVTZ-RI
    Molecular point group: c1

    Geometry (in Angstrom), charge = 0, multiplicity = 1:

       Center              X                  Y                   Z               Mass
    ------------   -----------------  -----------------  -----------------  -----------------
         O            2.744403169327    -0.856208629574    -0.000255724279    15.994914619570
         C           -0.409448830673     0.998564370426     0.000095275721    12.000000000000
         C            0.471939169327    -0.102778629574    -0.000055724279    12.000000000000
         C           -1.784264830673     0.733504370426     0.000204275721    12.000000000000
         C           -0.020969830673    -1.415314629574    -0.000109724279    12.000000000000
         C            0.074706169327     2.430006370426     0.000167275721    12.000000000000
         C           -2.205817130673    -0.385288329574     0.000157975721    12.000000000000
         C           -1.391213830673    -1.653465629574    -0.000004724279    12.000000000000
         C            1.944024169327     0.077083370426    -0.000169724279    12.000000000000
         H           -2.483412830673     1.567853370426     0.000322275721     1.007825032230
         H            0.696327169327    -2.232078629574    -0.000227724279     1.007825032230
         H            0.678903169327     2.658490370426    -0.883231724279     1.007825032230
         H           -0.780351830673     3.110986370426     0.000219275721     1.007825032230
         H            0.678931169327     2.658385370426     0.883575275721     1.007825032230
         H           -3.350268830673    -0.744593629574     0.000234275721     1.007825032230
         H           -1.769593830673    -2.672609629574    -0.000048724279     1.007825032230
         H            2.316909169327     1.118055370426    -0.000176724279     1.007825032230

  Basis Set: AUG-CC-PVTZ
    Blend: AUG-CC-PVTZ
  Basis Set: (AUG-CC-PVTZ AUX)
    Blend: AUG-CC-PVTZ-JKFIT
	 Reference Energy          =    -382.5322477841107798 [Eh]
	 Singles Energy            =      -0.0000000000000000 [Eh]
	 Same-Spin Energy          =      -0.4078619169746200 [Eh]
	 Opposite-Spin Energy      =      -1.2884136023194095 [Eh]
	 Correlation Energy        =      -1.6962755192940295 [Eh]
	 Total Energy              =    -384.2285233034048133 [Eh]

	 ================> DF-SCS-MP2 Energies <==================
	-----------------------------------------------------------
	 SCS Same-Spin Scale       =       0.3333333333333333 [-]
	 SCS Opposite-Spin Scale   =       1.2000000000000000 [-]
	 SCS Same-Spin Energy      =      -0.1359539723248733 [Eh]
	 SCS Opposite-Spin Energy  =      -1.5460963227832913 [Eh]
	 SCS Correlation Energy    =      -1.6820502951081646 [Eh]
	 SCS Total Energy          =    -384.2142980792189633 [Eh]
	-----------------------------------------------------------

  Dipole Moment: [D]
     X:    -2.6510      Y:     1.9268      Z:     0.0003     Total:     3.2772

*** Psi4 exiting successfully. Buy a developer a beer!
