                               Psi4 1.4a3.dev225

  ==> Input File <==

--------------------------------------------------------------------------
#psi4
#
memory 32 gb

molecule  {
0 1
  O        2.7820080    -0.8809860    -0.0002600
  C       -0.3718440     0.9737870     0.0000910
  C        0.5095440    -0.1275560    -0.0000600
  C       -1.7466600     0.7087270     0.0002000
  C        0.0166350    -1.4400920    -0.0001140
  C        0.1123110     2.4052290     0.0001630
  C       -2.2387310    -0.5972210     0.0001460
  C       -1.3536090    -1.6782430    -0.0000090
  C        1.9816290     0.0523060    -0.0001740
  H       -2.4458080     1.5430760     0.0003180
  H        0.7339320    -2.2568560    -0.0002320
  H        0.7165080     2.6337130    -0.8832360
  H       -0.7427470     3.0862090     0.0002150
  H        0.7165360     2.6336080     0.8835710
  H       -3.1151851    -0.7377154     0.0002146
  H       -1.7319890    -2.6973870    -0.0000530
  H        2.3545140     1.0932780    -0.0001810
units angstrom
no_reorient  #important for SAPT in psi4, default
symmetry c1  #important for SAPT in psi4, default
}

set PROPERTIES_ORIGIN ["COM"]
properties('MP2/aug-cc-pvtz', properties = ['dipole'])
--------------------------------------------------------------------------

    Molecular point group: c1
  Charge       = 0
  Multiplicity = 1
  Basis Set: AUG-CC-PVTZ
    Blend: AUG-CC-PVTZ
  Basis Set: (AUG-CC-PVTZ AUX)
    Blend: AUG-CC-PVTZ-JKFIT

    Orbital Energies [Eh]
    ---------------------

    Doubly Occupied:

       1A    -20.551886     2A    -11.334602     3A    -11.269154
       4A    -11.251287     5A    -11.248409     6A    -11.244634
       7A    -11.243271     8A    -11.243255     9A    -11.233713
      10A     -1.376598    11A     -1.172801    12A     -1.069455
      13A     -1.043749    14A     -0.954639    15A     -0.903046
      16A     -0.823420    17A     -0.796093    18A     -0.716412
      19A     -0.685468    20A     -0.655883    21A     -0.618566
      22A     -0.610551    23A     -0.597030    24A     -0.585023
      25A     -0.559930    26A     -0.538025    27A     -0.528304
      28A     -0.501684    29A     -0.490860    30A     -0.425347
      31A     -0.348602    32A     -0.341942

  @DF-RHF Final Energy:  -382.55963326807432

   => Energetics <=

    Nuclear Repulsion Energy =            403.1077428988066913
    One-Electron Energy =               -1317.4074739813127053
    Two-Electron Energy =                 531.7400978144316923
    Total Energy =                       -382.5596332680743217
  Basis Set: (AUG-CC-PVTZ AUX)
    Blend: AUG-CC-PVTZ-RI
    Molecular point group: c1

    Geometry (in Angstrom), charge = 0, multiplicity = 1:

       Center              X                  Y                   Z               Mass
    ------------   -----------------  -----------------  -----------------  -----------------
         O            2.749793920767    -0.837767798976    -0.000254825373    15.994914619570
         C           -0.404058079233     1.017005201024     0.000096174627    12.000000000000
         C            0.477329920767    -0.084337798976    -0.000054825373    12.000000000000
         C           -1.778874079233     0.751945201024     0.000205174627    12.000000000000
         C           -0.015579079233    -1.396873798976    -0.000108825373    12.000000000000
         C            0.080096920767     2.448447201024     0.000168174627    12.000000000000
         C           -2.270945079233    -0.554002798976     0.000151174627    12.000000000000
         C           -1.385823079233    -1.635024798976    -0.000003825373    12.000000000000
         C            1.949414920767     0.095524201024    -0.000168825373    12.000000000000
         H           -2.478022079233     1.586294201024     0.000323174627     1.007825032230
         H            0.701717920767    -2.213637798976    -0.000226825373     1.007825032230
         H            0.684293920767     2.676931201024    -0.883230825373     1.007825032230
         H           -0.774961079233     3.129427201024     0.000220174627     1.007825032230
         H            0.684321920767     2.676826201024     0.883576174627     1.007825032230
         H           -3.147399179233    -0.694497198976     0.000219774627     1.007825032230
         H           -1.764203079233    -2.654168798976    -0.000047825373     1.007825032230
         H            2.322299920767     1.136496201024    -0.000175825373     1.007825032230

  Basis Set: AUG-CC-PVTZ
    Blend: AUG-CC-PVTZ
  Basis Set: (AUG-CC-PVTZ AUX)
    Blend: AUG-CC-PVTZ-JKFIT
	 Reference Energy          =    -382.5596332680743217 [Eh]
	 Singles Energy            =      -0.0000000000000000 [Eh]
	 Same-Spin Energy          =      -0.4083006191730179 [Eh]
	 Opposite-Spin Energy      =      -1.2865121183796642 [Eh]
	 Correlation Energy        =      -1.6948127375526820 [Eh]
	 Total Energy              =    -384.2544460056270168 [Eh]

	 ================> DF-SCS-MP2 Energies <==================
	-----------------------------------------------------------
	 SCS Same-Spin Scale       =       0.3333333333333333 [-]
	 SCS Opposite-Spin Scale   =       1.2000000000000000 [-]
	 SCS Same-Spin Energy      =      -0.1361002063910060 [Eh]
	 SCS Opposite-Spin Energy  =      -1.5438145420555969 [Eh]
	 SCS Correlation Energy    =      -1.6799147484466028 [Eh]
	 SCS Total Energy          =    -384.2395480165209278 [Eh]
	-----------------------------------------------------------

  Dipole Moment: [D]
     X:    -2.7514      Y:     1.8763      Z:     0.0003     Total:     3.3303

*** Psi4 exiting successfully. Buy a developer a beer!
