                               Psi4 1.4a3.dev225

  ==> Input File <==

--------------------------------------------------------------------------
#psi4
#
memory 32 gb

molecule  {
0 1
  O        2.7820080    -0.8809860    -0.0002600
  C       -0.3718440     0.9737870     0.0000910
  C        0.5095440    -0.1275560    -0.0000600
  C       -1.7466600     0.7087270     0.0002000
  C        0.0166350    -1.4400920    -0.0001140
  C        0.1123110     2.4052290     0.0001630
  C       -2.2387310    -0.5972210     0.0001460
  C       -1.3536090    -1.6782430    -0.0000090
  C        1.9816290     0.0523060    -0.0001740
  H       -2.4458080     1.5430760     0.0003180
  H        0.7339320    -2.2568560    -0.0002320
  H        0.7717174     2.6545911    -0.9639579
  H       -0.7427470     3.0862090     0.0002150
  H        0.7165360     2.6336080     0.8835710
  H       -3.3126640    -0.7693710     0.0002300
  H       -1.7319890    -2.6973870    -0.0000530
  H        2.3545140     1.0932780    -0.0001810
units angstrom
no_reorient  #important for SAPT in psi4, default
symmetry c1  #important for SAPT in psi4, default
}

set PROPERTIES_ORIGIN ["COM"]
properties('MP2/aug-cc-pvtz', properties = ['dipole'])
--------------------------------------------------------------------------

    Molecular point group: c1
  Charge       = 0
  Multiplicity = 1
  Basis Set: AUG-CC-PVTZ
    Blend: AUG-CC-PVTZ
  Basis Set: (AUG-CC-PVTZ AUX)
    Blend: AUG-CC-PVTZ-JKFIT

    Orbital Energies [Eh]
    ---------------------

    Doubly Occupied:

       1A    -20.552103     2A    -11.334663     3A    -11.270868
       4A    -11.257922     5A    -11.255319     6A    -11.252542
       7A    -11.249064     8A    -11.246344     9A    -11.244779
      10A     -1.376800    11A     -1.172215    12A     -1.064073
      13A     -1.040110    14A     -0.950046    15A     -0.889631
      16A     -0.821047    17A     -0.786771    18A     -0.708026
      19A     -0.674042    20A     -0.644655    21A     -0.618746
      22A     -0.609581    23A     -0.590462    24A     -0.582004
      25A     -0.556380    26A     -0.535453    27A     -0.517633
      28A     -0.503048    29A     -0.490744    30A     -0.425274
      31A     -0.349254    32A     -0.342554

  @DF-RHF Final Energy:  -382.58772338647873

   => Energetics <=

    Nuclear Repulsion Energy =            401.5492838513272886
    One-Electron Energy =               -1314.4497176744500848
    Two-Electron Energy =                 530.3127104366440108
    Total Energy =                       -382.5877233864787286
  Basis Set: (AUG-CC-PVTZ AUX)
    Blend: AUG-CC-PVTZ-RI
    Molecular point group: c1

    Geometry (in Angstrom), charge = 0, multiplicity = 1:

       Center              X                  Y                   Z               Mass
    ------------   -----------------  -----------------  -----------------  -----------------
         O            2.750988204720    -0.837677327052     0.000422666836    15.994914619570
         C           -0.402863795280     1.017095672948     0.000773666836    12.000000000000
         C            0.478524204720    -0.084247327052     0.000622666836    12.000000000000
         C           -1.777679795280     0.752035672948     0.000882666836    12.000000000000
         C           -0.014384795280    -1.396783327052     0.000568666836    12.000000000000
         C            0.081291204720     2.448537672948     0.000845666836    12.000000000000
         C           -2.269750795280    -0.553912327052     0.000828666836    12.000000000000
         C           -1.384628795280    -1.634934327052     0.000673666836    12.000000000000
         C            1.950609204720     0.095614672948     0.000508666836    12.000000000000
         H           -2.476827795280     1.586384672948     0.001000666836     1.007825032230
         H            0.702912204720    -2.213547327052     0.000450666836     1.007825032230
         H            0.740697604720     2.697899772948    -0.963275233164     1.007825032230
         H           -0.773766795280     3.129517672948     0.000897666836     1.007825032230
         H            0.685516204720     2.676916672948     0.884253666836     1.007825032230
         H           -3.343683795280    -0.726062327052     0.000912666836     1.007825032230
         H           -1.763008795280    -2.654078327052     0.000629666836     1.007825032230
         H            2.323494204720     1.136586672948     0.000501666836     1.007825032230

  Basis Set: AUG-CC-PVTZ
    Blend: AUG-CC-PVTZ
  Basis Set: (AUG-CC-PVTZ AUX)
    Blend: AUG-CC-PVTZ-JKFIT
	 Reference Energy          =    -382.5877233864787286 [Eh]
	 Singles Energy            =      -0.0000000000000000 [Eh]
	 Same-Spin Energy          =      -0.4084978633782484 [Eh]
	 Opposite-Spin Energy      =      -1.2877442808079500 [Eh]
	 Correlation Energy        =      -1.6962421441861983 [Eh]
	 Total Energy              =    -384.2839655306649433 [Eh]

	 ================> DF-SCS-MP2 Energies <==================
	-----------------------------------------------------------
	 SCS Same-Spin Scale       =       0.3333333333333333 [-]
	 SCS Opposite-Spin Scale   =       1.2000000000000000 [-]
	 SCS Same-Spin Energy      =      -0.1361659544594161 [Eh]
	 SCS Opposite-Spin Energy  =      -1.5452931369695400 [Eh]
	 SCS Correlation Energy    =      -1.6814590914289560 [Eh]
	 SCS Total Energy          =    -384.2691824779076910 [Eh]
	-----------------------------------------------------------

  Dipole Moment: [D]
     X:    -2.7446      Y:     1.8524      Z:     0.0307     Total:     3.3114

*** Psi4 exiting successfully. Buy a developer a beer!
