                               Psi4 1.4a3.dev225

  ==> Input File <==

--------------------------------------------------------------------------
#psi4
#
memory 32 gb

molecule  {
0 1
  O        2.7820080    -0.8809860    -0.0002600
  C       -0.3718440     0.9737870     0.0000910
  C        0.5095440    -0.1275560    -0.0000600
  C       -1.7466600     0.7087270     0.0002000
  C        0.0166350    -1.4400920    -0.0001140
  C        0.1123110     2.4052290     0.0001630
  C       -2.2387310    -0.5972210     0.0001460
  C       -1.3536090    -1.6782430    -0.0000090
  C        1.9816290     0.0523060    -0.0001740
  H       -2.4458080     1.5430760     0.0003180
  H        0.7339320    -2.2568560    -0.0002320
  H        0.7165080     2.6337130    -0.8832360
  H       -0.7427470     3.0862090     0.0002150
  H        0.7165360     2.6336080     0.8835710
  H       -3.3126640    -0.7693710     0.0002300
  H       -1.7319890    -2.6973870    -0.0000530
  H        2.4219592     1.2815627    -0.0001823
units angstrom
no_reorient  #important for SAPT in psi4, default
symmetry c1  #important for SAPT in psi4, default
}

set PROPERTIES_ORIGIN ["COM"]
properties('MP2/aug-cc-pvtz', properties = ['dipole'])
--------------------------------------------------------------------------

    Molecular point group: c1
  Charge       = 0
  Multiplicity = 1
  Basis Set: AUG-CC-PVTZ
    Blend: AUG-CC-PVTZ
  Basis Set: (AUG-CC-PVTZ AUX)
    Blend: AUG-CC-PVTZ-JKFIT

    Orbital Energies [Eh]
    ---------------------

    Doubly Occupied:

       1A    -20.557669     2A    -11.355811     3A    -11.271450
       4A    -11.259128     5A    -11.254907     6A    -11.252894
       7A    -11.246532     8A    -11.245736     9A    -11.242623
      10A     -1.380385    11A     -1.173441    12A     -1.065660
      13A     -1.041404    14A     -0.955210    15A     -0.882287
      16A     -0.823323    17A     -0.771751    18A     -0.699801
      19A     -0.670979    20A     -0.644954    21A     -0.614920
      22A     -0.602540    23A     -0.596839    24A     -0.585966
      25A     -0.558480    26A     -0.541423    27A     -0.519883
      28A     -0.503710    29A     -0.493676    30A     -0.415277
      31A     -0.351228    32A     -0.343809

  @DF-RHF Final Energy:  -382.57312283923841

   => Energetics <=

    Nuclear Repulsion Energy =            401.1262076823471716
    One-Electron Energy =               -1313.5512669314341565
    Two-Electron Energy =                 529.8519364098485767
    Total Energy =                       -382.5731228392384082
  Basis Set: (AUG-CC-PVTZ AUX)
    Blend: AUG-CC-PVTZ-RI
    Molecular point group: c1

    Geometry (in Angstrom), charge = 0, multiplicity = 1:

       Center              X                  Y                   Z               Mass
    ------------   -----------------  -----------------  -----------------  -----------------
         O            2.750885491070    -0.839082624856    -0.000254943735    15.994914619570
         C           -0.402966508930     1.015690375144     0.000096056265    12.000000000000
         C            0.478421491070    -0.085652624856    -0.000054943735    12.000000000000
         C           -1.777782508930     0.750630375144     0.000205056265    12.000000000000
         C           -0.014487508930    -1.398188624856    -0.000108943735    12.000000000000
         C            0.081188491070     2.447132375144     0.000168056265    12.000000000000
         C           -2.269853508930    -0.555317624856     0.000151056265    12.000000000000
         C           -1.384731508930    -1.636339624856    -0.000003943735    12.000000000000
         C            1.950506491070     0.094209375144    -0.000168943735    12.000000000000
         H           -2.476930508930     1.584979375144     0.000323056265     1.007825032230
         H            0.702809491070    -2.214952624856    -0.000226943735     1.007825032230
         H            0.685385491070     2.675616375144    -0.883230943735     1.007825032230
         H           -0.773869508930     3.128112375144     0.000220056265     1.007825032230
         H            0.685413491070     2.675511375144     0.883576056265     1.007825032230
         H           -3.343786508930    -0.727467624856     0.000235056265     1.007825032230
         H           -1.763111508930    -2.655483624856    -0.000047943735     1.007825032230
         H            2.390836691070     1.323466075144    -0.000177243735     1.007825032230

  Basis Set: AUG-CC-PVTZ
    Blend: AUG-CC-PVTZ
  Basis Set: (AUG-CC-PVTZ AUX)
    Blend: AUG-CC-PVTZ-JKFIT
	 Reference Energy          =    -382.5731228392384082 [Eh]
	 Singles Energy            =      -0.0000000000000000 [Eh]
	 Same-Spin Energy          =      -0.4096554852516762 [Eh]
	 Opposite-Spin Energy      =      -1.2899512326860956 [Eh]
	 Correlation Energy        =      -1.6996067179377716 [Eh]
	 Total Energy              =    -384.2727295571762056 [Eh]

	 ================> DF-SCS-MP2 Energies <==================
	-----------------------------------------------------------
	 SCS Same-Spin Scale       =       0.3333333333333333 [-]
	 SCS Opposite-Spin Scale   =       1.2000000000000000 [-]
	 SCS Same-Spin Energy      =      -0.1365518284172254 [Eh]
	 SCS Opposite-Spin Energy  =      -1.5479414792233146 [Eh]
	 SCS Correlation Energy    =      -1.6844933076405399 [Eh]
	 SCS Total Energy          =    -384.2576161468789451 [Eh]
	-----------------------------------------------------------

  Dipole Moment: [D]
     X:    -2.8368      Y:     1.6399      Z:     0.0003     Total:     3.2766

*** Psi4 exiting successfully. Buy a developer a beer!
