                               Psi4 1.4a3.dev225

  ==> Input File <==

--------------------------------------------------------------------------
#psi4
#
memory 32 gb

molecule  {
0 1
  O        2.7820080    -0.8809860    -0.0002600
  C       -0.3718440     0.9737870     0.0000910
  C        0.5095440    -0.1275560    -0.0000600
  C       -1.7466600     0.7087270     0.0002000
  C        0.0166350    -1.4400920    -0.0001140
  C        0.1123110     2.4052290     0.0001630
  C       -2.2387310    -0.5972210     0.0001460
  C       -1.4028705    -1.6868047    -0.0000052
  C        1.9816290     0.0523060    -0.0001740
  H       -2.4458080     1.5430760     0.0003180
  H        0.7339320    -2.2568560    -0.0002320
  H        0.7165080     2.6337130    -0.8832360
  H       -0.7427470     3.0862090     0.0002150
  H        0.7165360     2.6336080     0.8835710
  H       -3.3126640    -0.7693710     0.0002300
  H       -1.7319890    -2.6973870    -0.0000530
  H        2.3545140     1.0932780    -0.0001810
units angstrom
no_reorient  #important for SAPT in psi4, default
symmetry c1  #important for SAPT in psi4, default
}

set PROPERTIES_ORIGIN ["COM"]
properties('MP2/aug-cc-pvtz', properties = ['dipole'])
--------------------------------------------------------------------------

    Molecular point group: c1
  Charge       = 0
  Multiplicity = 1
  Basis Set: AUG-CC-PVTZ
    Blend: AUG-CC-PVTZ
  Basis Set: (AUG-CC-PVTZ AUX)
    Blend: AUG-CC-PVTZ-JKFIT

    Orbital Energies [Eh]
    ---------------------

    Doubly Occupied:

       1A    -20.552321     2A    -11.335339     3A    -11.269619
       4A    -11.259030     5A    -11.254450     6A    -11.249156
       7A    -11.245415     8A    -11.245058     9A    -11.243608
      10A     -1.377087    11A     -1.170075    12A     -1.065736
      13A     -1.038026    14A     -0.954073    15A     -0.889902
      16A     -0.823948    17A     -0.786144    18A     -0.709465
      19A     -0.673118    20A     -0.646267    21A     -0.618796
      22A     -0.612861    23A     -0.597252    24A     -0.584179
      25A     -0.557806    26A     -0.538083    27A     -0.512490
      28A     -0.508452    29A     -0.490666    30A     -0.425638
      31A     -0.351682    32A     -0.338442

  @DF-RHF Final Energy:  -382.59115150494176

   => Energetics <=

    Nuclear Repulsion Energy =            401.4040263732583185
    One-Electron Energy =               -1314.1419904628003223
    Two-Electron Energy =                 530.1468125846001840
    Total Energy =                       -382.5911515049417631
  Basis Set: (AUG-CC-PVTZ AUX)
    Blend: AUG-CC-PVTZ-RI
    Molecular point group: c1

    Geometry (in Angstrom), charge = 0, multiplicity = 1:

       Center              X                  Y                   Z               Mass
    ------------   -----------------  -----------------  -----------------  -----------------
         O            2.756375451124    -0.836646305613    -0.000255334466    15.994914619570
         C           -0.397476548876     1.018126694387     0.000095665534    12.000000000000
         C            0.483911451124    -0.083216305613    -0.000055334466    12.000000000000
         C           -1.772292548876     0.753066694387     0.000204665534    12.000000000000
         C           -0.008997548876    -1.395752305613    -0.000109334466    12.000000000000
         C            0.086678451124     2.449568694387     0.000167665534    12.000000000000
         C           -2.264363548876    -0.552881305613     0.000150665534    12.000000000000
         C           -1.428503048876    -1.642465005613    -0.000000534466    12.000000000000
         C            1.955996451124     0.096645694387    -0.000169334466    12.000000000000
         H           -2.471440548876     1.587415694387     0.000322665534     1.007825032230
         H            0.708299451124    -2.212516305613    -0.000227334466     1.007825032230
         H            0.690875451124     2.678052694387    -0.883231334466     1.007825032230
         H           -0.768379548876     3.130548694387     0.000219665534     1.007825032230
         H            0.690903451124     2.677947694387     0.883575665534     1.007825032230
         H           -3.338296548876    -0.725031305613     0.000234665534     1.007825032230
         H           -1.757621548876    -2.653047305613    -0.000048334466     1.007825032230
         H            2.328881451124     1.137617694387    -0.000176334466     1.007825032230

  Basis Set: AUG-CC-PVTZ
    Blend: AUG-CC-PVTZ
  Basis Set: (AUG-CC-PVTZ AUX)
    Blend: AUG-CC-PVTZ-JKFIT
	 Reference Energy          =    -382.5911515049417631 [Eh]
	 Singles Energy            =      -0.0000000000000000 [Eh]
	 Same-Spin Energy          =      -0.4083512518992808 [Eh]
	 Opposite-Spin Energy      =      -1.2871641979006581 [Eh]
	 Correlation Energy        =      -1.6955154497999390 [Eh]
	 Total Energy              =    -384.2866669547416905 [Eh]

	 ================> DF-SCS-MP2 Energies <==================
	-----------------------------------------------------------
	 SCS Same-Spin Scale       =       0.3333333333333333 [-]
	 SCS Opposite-Spin Scale   =       1.2000000000000000 [-]
	 SCS Same-Spin Energy      =      -0.1361170839664269 [Eh]
	 SCS Opposite-Spin Energy  =      -1.5445970374807896 [Eh]
	 SCS Correlation Energy    =      -1.6807141214472165 [Eh]
	 SCS Total Energy          =    -384.2718656263890011 [Eh]
	-----------------------------------------------------------

  Dipole Moment: [D]
     X:    -2.6898      Y:     1.8579      Z:     0.0003     Total:     3.2691

*** Psi4 exiting successfully. Buy a developer a beer!
