                               Psi4 1.4a3.dev225

  ==> Input File <==

--------------------------------------------------------------------------
#psi4
#
memory 32 gb

molecule  {
0 1
  O        2.7820080    -0.8809860    -0.0002600
  C       -0.3718440     0.9737870     0.0000910
  C        0.5095440    -0.1275560    -0.0000600
  C       -1.7418247     0.6847735     0.0001976
  C        0.0166350    -1.4400920    -0.0001140
  C        0.1123110     2.4052290     0.0001630
  C       -2.2387310    -0.5972210     0.0001460
  C       -1.3536090    -1.6782430    -0.0000090
  C        1.9816290     0.0523060    -0.0001740
  H       -2.4458080     1.5430760     0.0003180
  H        0.7339320    -2.2568560    -0.0002320
  H        0.7165080     2.6337130    -0.8832360
  H       -0.7427470     3.0862090     0.0002150
  H        0.7165360     2.6336080     0.8835710
  H       -3.3126640    -0.7693710     0.0002300
  H       -1.7319890    -2.6973870    -0.0000530
  H        2.3545140     1.0932780    -0.0001810
units angstrom
no_reorient  #important for SAPT in psi4, default
symmetry c1  #important for SAPT in psi4, default
}

set PROPERTIES_ORIGIN ["COM"]
properties('MP2/aug-cc-pvtz', properties = ['dipole'])
--------------------------------------------------------------------------

    Molecular point group: c1
  Charge       = 0
  Multiplicity = 1
  Basis Set: AUG-CC-PVTZ
    Blend: AUG-CC-PVTZ
  Basis Set: (AUG-CC-PVTZ AUX)
    Blend: AUG-CC-PVTZ-JKFIT

    Orbital Energies [Eh]
    ---------------------

    Doubly Occupied:

       1A    -20.552361     2A    -11.334846     3A    -11.270206
       4A    -11.254901     5A    -11.251348     6A    -11.248725
       7A    -11.245326     8A    -11.244581     9A    -11.244146
      10A     -1.377006    11A     -1.173719    12A     -1.065971
      13A     -1.040816    14A     -0.955998    15A     -0.890189
      16A     -0.822058    17A     -0.785877    18A     -0.709223
      19A     -0.673981    20A     -0.644523    21A     -0.618446
      22A     -0.607818    23A     -0.598059    24A     -0.585034
      25A     -0.557899    26A     -0.538713    27A     -0.520711
      28A     -0.500142    29A     -0.493061    30A     -0.425517
      31A     -0.350996    32A     -0.341928

  @DF-RHF Final Energy:  -382.59348895831988

   => Energetics <=

    Nuclear Repulsion Energy =            402.2691082070477933
    One-Electron Energy =               -1315.8769446478454483
    Two-Electron Energy =                 531.0143474824777741
    Total Energy =                       -382.5934889583198810
  Basis Set: (AUG-CC-PVTZ AUX)
    Blend: AUG-CC-PVTZ-RI
    Molecular point group: c1

    Geometry (in Angstrom), charge = 0, multiplicity = 1:

       Center              X                  Y                   Z               Mass
    ------------   -----------------  -----------------  -----------------  -----------------
         O            2.750968362691    -0.835107862974    -0.000254714763    15.994914619570
         C           -0.402883637309     1.019665137026     0.000096285237    12.000000000000
         C            0.478504362691    -0.081677862974    -0.000054714763    12.000000000000
         C           -1.772864337309     0.730651637026     0.000202885237    12.000000000000
         C           -0.014404637309    -1.394213862974    -0.000108714763    12.000000000000
         C            0.081271362691     2.451107137026     0.000168285237    12.000000000000
         C           -2.269770637309    -0.551342862974     0.000151285237    12.000000000000
         C           -1.384648637309    -1.632364862974    -0.000003714763    12.000000000000
         C            1.950589362691     0.098184137026    -0.000168714763    12.000000000000
         H           -2.476847637309     1.588954137026     0.000323285237     1.007825032230
         H            0.702892362691    -2.210977862974    -0.000226714763     1.007825032230
         H            0.685468362691     2.679591137026    -0.883230714763     1.007825032230
         H           -0.773786637309     3.132087137026     0.000220285237     1.007825032230
         H            0.685496362691     2.679486137026     0.883576285237     1.007825032230
         H           -3.343703637309    -0.723492862974     0.000235285237     1.007825032230
         H           -1.763028637309    -2.651508862974    -0.000047714763     1.007825032230
         H            2.323474362691     1.139156137026    -0.000175714763     1.007825032230

  Basis Set: AUG-CC-PVTZ
    Blend: AUG-CC-PVTZ
  Basis Set: (AUG-CC-PVTZ AUX)
    Blend: AUG-CC-PVTZ-JKFIT
	 Reference Energy          =    -382.5934889583198810 [Eh]
	 Singles Energy            =      -0.0000000000000000 [Eh]
	 Same-Spin Energy          =      -0.4085450047882100 [Eh]
	 Opposite-Spin Energy      =      -1.2870149734846952 [Eh]
	 Correlation Energy        =      -1.6955599782729052 [Eh]
	 Total Energy              =    -384.2890489365927920 [Eh]

	 ================> DF-SCS-MP2 Energies <==================
	-----------------------------------------------------------
	 SCS Same-Spin Scale       =       0.3333333333333333 [-]
	 SCS Opposite-Spin Scale   =       1.2000000000000000 [-]
	 SCS Same-Spin Energy      =      -0.1361816682627366 [Eh]
	 SCS Opposite-Spin Energy  =      -1.5444179681816341 [Eh]
	 SCS Correlation Energy    =      -1.6805996364443707 [Eh]
	 SCS Total Energy          =    -384.2740885947642369 [Eh]
	-----------------------------------------------------------

  Dipole Moment: [D]
     X:    -2.7019      Y:     1.8885      Z:     0.0003     Total:     3.2965

*** Psi4 exiting successfully. Buy a developer a beer!
