                               Psi4 1.4a3.dev225

  ==> Input File <==

--------------------------------------------------------------------------
#psi4
#
memory 32 gb

molecule  {
0 1
  O        2.7820080    -0.8809860    -0.0002600
  C       -0.3718440     0.9737870     0.0000910
  C        0.5095440    -0.1275560    -0.0000600
  C       -1.7466600     0.7087270     0.0002000
  C        0.0166350    -1.4400920    -0.0001140
  C        0.0962911     2.3578649     0.0001606
  C       -2.2387310    -0.5972210     0.0001460
  C       -1.3536090    -1.6782430    -0.0000090
  C        1.9816290     0.0523060    -0.0001740
  H       -2.4458080     1.5430760     0.0003180
  H        0.7339320    -2.2568560    -0.0002320
  H        0.7165080     2.6337130    -0.8832360
  H       -0.7427470     3.0862090     0.0002150
  H        0.7165360     2.6336080     0.8835710
  H       -3.3126640    -0.7693710     0.0002300
  H       -1.7319890    -2.6973870    -0.0000530
  H        2.3545140     1.0932780    -0.0001810
units angstrom
no_reorient  #important for SAPT in psi4, default
symmetry c1  #important for SAPT in psi4, default
}

set PROPERTIES_ORIGIN ["COM"]
properties('MP2/aug-cc-pvtz', properties = ['dipole'])
--------------------------------------------------------------------------

    Molecular point group: c1
  Charge       = 0
  Multiplicity = 1
  Basis Set: AUG-CC-PVTZ
    Blend: AUG-CC-PVTZ
  Basis Set: (AUG-CC-PVTZ AUX)
    Blend: AUG-CC-PVTZ-JKFIT

    Orbital Energies [Eh]
    ---------------------

    Doubly Occupied:

       1A    -20.552203     2A    -11.334849     3A    -11.267809
       4A    -11.257667     5A    -11.252474     6A    -11.248765
       7A    -11.245714     8A    -11.245593     9A    -11.244510
      10A     -1.376898    11A     -1.174228    12A     -1.070465
      13A     -1.040553    14A     -0.954008    15A     -0.890192
      16A     -0.821538    17A     -0.787242    18A     -0.709927
      19A     -0.674897    20A     -0.647434    21A     -0.619513
      22A     -0.610050    23A     -0.593132    24A     -0.591755
      25A     -0.551303    26A     -0.536219    27A     -0.519209
      28A     -0.505112    29A     -0.490357    30A     -0.425327
      31A     -0.349173    32A     -0.341557

  @DF-RHF Final Energy:  -382.59093097284631

   => Energetics <=

    Nuclear Repulsion Energy =            402.8049804310581976
    One-Electron Energy =               -1316.9324747330319951
    Two-Electron Energy =                 531.5365633291274889
    Total Energy =                       -382.5909309728463086
  Basis Set: (AUG-CC-PVTZ AUX)
    Blend: AUG-CC-PVTZ-RI
    Molecular point group: c1

    Geometry (in Angstrom), charge = 0, multiplicity = 1:

       Center              X                  Y                   Z               Mass
    ------------   -----------------  -----------------  -----------------  -----------------
         O            2.753052883600    -0.832767924485    -0.000254714763    15.994914619570
         C           -0.400799116400     1.022005075515     0.000096285237    12.000000000000
         C            0.480588883600    -0.079337924485    -0.000054714763    12.000000000000
         C           -1.775615116400     0.756945075515     0.000205285237    12.000000000000
         C           -0.012320116400    -1.391873924485    -0.000108714763    12.000000000000
         C            0.067335983600     2.406082975515     0.000165885237    12.000000000000
         C           -2.267686116400    -0.549002924485     0.000151285237    12.000000000000
         C           -1.382564116400    -1.630024924485    -0.000003714763    12.000000000000
         C            1.952673883600     0.100524075515    -0.000168714763    12.000000000000
         H           -2.474763116400     1.591294075515     0.000323285237     1.007825032230
         H            0.704976883600    -2.208637924485    -0.000226714763     1.007825032230
         H            0.687552883600     2.681931075515    -0.883230714763     1.007825032230
         H           -0.771702116400     3.134427075515     0.000220285237     1.007825032230
         H            0.687580883600     2.681826075515     0.883576285237     1.007825032230
         H           -3.341619116400    -0.721152924485     0.000235285237     1.007825032230
         H           -1.760944116400    -2.649168924485    -0.000047714763     1.007825032230
         H            2.325558883600     1.141496075515    -0.000175714763     1.007825032230

  Basis Set: AUG-CC-PVTZ
    Blend: AUG-CC-PVTZ
  Basis Set: (AUG-CC-PVTZ AUX)
    Blend: AUG-CC-PVTZ-JKFIT
	 Reference Energy          =    -382.5909309728463086 [Eh]
	 Singles Energy            =      -0.0000000000000000 [Eh]
	 Same-Spin Energy          =      -0.4090257440523926 [Eh]
	 Opposite-Spin Energy      =      -1.2876327545464819 [Eh]
	 Correlation Energy        =      -1.6966584985988744 [Eh]
	 Total Energy              =    -384.2875894714451874 [Eh]

	 ================> DF-SCS-MP2 Energies <==================
	-----------------------------------------------------------
	 SCS Same-Spin Scale       =       0.3333333333333333 [-]
	 SCS Opposite-Spin Scale   =       1.2000000000000000 [-]
	 SCS Same-Spin Energy      =      -0.1363419146841308 [Eh]
	 SCS Opposite-Spin Energy  =      -1.5451593054557782 [Eh]
	 SCS Correlation Energy    =      -1.6815012201399091 [Eh]
	 SCS Total Energy          =    -384.2724321929862299 [Eh]
	-----------------------------------------------------------

  Dipole Moment: [D]
     X:    -2.7116      Y:     1.8927      Z:     0.0003     Total:     3.3069

*** Psi4 exiting successfully. Buy a developer a beer!
