                               Psi4 1.4a3.dev225

  ==> Input File <==

--------------------------------------------------------------------------
#psi4
#
memory 32 gb

molecule  {
0 1
  O        2.7820080    -0.8809860    -0.0002600
  C       -0.3718440     0.9737870     0.0000910
  C        0.5095440    -0.1275560    -0.0000600
  C       -1.7466600     0.7087270     0.0002000
  C        0.0166350    -1.4400920    -0.0001140
  C        0.1123110     2.4052290     0.0001630
  C       -2.2387310    -0.5972210     0.0001460
  C       -1.3536090    -1.6782430    -0.0000090
  C        1.9816290     0.0523060    -0.0001740
  H       -2.4458080     1.5430760     0.0003180
  H        0.6019574    -2.1065806    -0.0002103
  H        0.7165080     2.6337130    -0.8832360
  H       -0.7427470     3.0862090     0.0002150
  H        0.7165360     2.6336080     0.8835710
  H       -3.3126640    -0.7693710     0.0002300
  H       -1.7319890    -2.6973870    -0.0000530
  H        2.3545140     1.0932780    -0.0001810
units angstrom
no_reorient  #important for SAPT in psi4, default
symmetry c1  #important for SAPT in psi4, default
}

set PROPERTIES_ORIGIN ["COM"]
properties('MP2/aug-cc-pvtz', properties = ['dipole'])
--------------------------------------------------------------------------

    Molecular point group: c1
  Charge       = 0
  Multiplicity = 1
  Basis Set: AUG-CC-PVTZ
    Blend: AUG-CC-PVTZ
  Basis Set: (AUG-CC-PVTZ AUX)
    Blend: AUG-CC-PVTZ-JKFIT

    Orbital Energies [Eh]
    ---------------------

    Doubly Occupied:

       1A    -20.552446     2A    -11.334945     3A    -11.269544
       4A    -11.257168     5A    -11.248220     6A    -11.245878
       7A    -11.244172     8A    -11.243539     9A    -11.230337
      10A     -1.377098    11A     -1.173479    12A     -1.067229
      13A     -1.046714    14A     -0.956539    15A     -0.896472
      16A     -0.836434    17A     -0.788151    18A     -0.712870
      19A     -0.688126    20A     -0.653886    21A     -0.623352
      22A     -0.613648    23A     -0.597343    24A     -0.587755
      25A     -0.558610    26A     -0.538491    27A     -0.522752
      28A     -0.508146    29A     -0.491448    30A     -0.425595
      31A     -0.349065    32A     -0.342639

  @DF-RHF Final Energy:  -382.55975174488702

   => Energetics <=

    Nuclear Repulsion Energy =            403.0648496901706039
    One-Electron Energy =               -1317.2850230151952928
    Two-Electron Energy =                 531.6604215801376085
    Total Energy =                       -382.5597517448870803
  Basis Set: (AUG-CC-PVTZ AUX)
    Blend: AUG-CC-PVTZ-RI
    Molecular point group: c1

    Geometry (in Angstrom), charge = 0, multiplicity = 1:

       Center              X                  Y                   Z               Mass
    ------------   -----------------  -----------------  -----------------  -----------------
         O            2.752559524275    -0.838763555084    -0.000255136809    15.994914619570
         C           -0.401292475725     1.016009444916     0.000095863191    12.000000000000
         C            0.480095524275    -0.085333555084    -0.000055136809    12.000000000000
         C           -1.776108475725     0.750949444916     0.000204863191    12.000000000000
         C           -0.012813475725    -1.397869555084    -0.000109136809    12.000000000000
         C            0.082862524275     2.447451444916     0.000167863191    12.000000000000
         C           -2.268179475725    -0.554998555084     0.000150863191    12.000000000000
         C           -1.383057475725    -1.636020555084    -0.000004136809    12.000000000000
         C            1.952180524275     0.094528444916    -0.000169136809    12.000000000000
         H           -2.475256475725     1.585298444916     0.000322863191     1.007825032230
         H            0.572508924275    -2.064358155084    -0.000205436809     1.007825032230
         H            0.687059524275     2.675935444916    -0.883231136809     1.007825032230
         H           -0.772195475725     3.128431444916     0.000219863191     1.007825032230
         H            0.687087524275     2.675830444916     0.883575863191     1.007825032230
         H           -3.342112475725    -0.727148555084     0.000234863191     1.007825032230
         H           -1.761437475725    -2.655164555084    -0.000048136809     1.007825032230
         H            2.325065524275     1.135500444916    -0.000176136809     1.007825032230

  Basis Set: AUG-CC-PVTZ
    Blend: AUG-CC-PVTZ
  Basis Set: (AUG-CC-PVTZ AUX)
    Blend: AUG-CC-PVTZ-JKFIT
	 Reference Energy          =    -382.5597517448870235 [Eh]
	 Singles Energy            =      -0.0000000000000000 [Eh]
	 Same-Spin Energy          =      -0.4080139526763119 [Eh]
	 Opposite-Spin Energy      =      -1.2862809620250455 [Eh]
	 Correlation Energy        =      -1.6942949147013575 [Eh]
	 Total Energy              =    -384.2540466595883686 [Eh]

	 ================> DF-SCS-MP2 Energies <==================
	-----------------------------------------------------------
	 SCS Same-Spin Scale       =       0.3333333333333333 [-]
	 SCS Opposite-Spin Scale   =       1.2000000000000000 [-]
	 SCS Same-Spin Energy      =      -0.1360046508921040 [Eh]
	 SCS Opposite-Spin Energy  =      -1.5435371544300545 [Eh]
	 SCS Correlation Energy    =      -1.6795418053221585 [Eh]
	 SCS Total Energy          =    -384.2392935502091973 [Eh]
	-----------------------------------------------------------

  Dipole Moment: [D]
     X:    -2.7498      Y:     1.8932      Z:     0.0003     Total:     3.3385

*** Psi4 exiting successfully. Buy a developer a beer!
