                               Psi4 1.4a3.dev225

  ==> Input File <==

--------------------------------------------------------------------------
#psi4
#
memory 32 gb

molecule  {
0 1
  O        2.7820080    -0.8809860    -0.0002600
  C       -0.3718440     0.9737870     0.0000910
  C        0.5095440    -0.1275560    -0.0000600
  C       -1.7466600     0.7087270     0.0002000
  C        0.0166350    -1.4400920    -0.0001140
  C        0.1123110     2.4052290     0.0001630
  C       -2.2387310    -0.5972210     0.0001460
  C       -1.3536090    -1.6782430    -0.0000090
  C        1.9816290     0.0523060    -0.0001740
  H       -2.4458080     1.5430760     0.0003180
  H        0.7339320    -2.2568560    -0.0002320
  H        0.7054661     2.6295374    -0.8670916
  H       -0.7427470     3.0862090     0.0002150
  H        0.7165360     2.6336080     0.8835710
  H       -3.3126640    -0.7693710     0.0002300
  H       -1.7319890    -2.6973870    -0.0000530
  H        2.3545140     1.0932780    -0.0001810
units angstrom
no_reorient  #important for SAPT in psi4, default
symmetry c1  #important for SAPT in psi4, default
}

set PROPERTIES_ORIGIN ["COM"]
properties('MP2/aug-cc-pvtz', properties = ['dipole'])
--------------------------------------------------------------------------

    Molecular point group: c1
  Charge       = 0
  Multiplicity = 1
  Basis Set: AUG-CC-PVTZ
    Blend: AUG-CC-PVTZ
  Basis Set: (AUG-CC-PVTZ AUX)
    Blend: AUG-CC-PVTZ-JKFIT

    Orbital Energies [Eh]
    ---------------------

    Doubly Occupied:

       1A    -20.552106     2A    -11.334920     3A    -11.269987
       4A    -11.257529     5A    -11.252227     6A    -11.248686
       7A    -11.245537     8A    -11.244282     9A    -11.241397
      10A     -1.376848    11A     -1.171969    12A     -1.065734
      13A     -1.039851    14A     -0.956570    15A     -0.890073
      16A     -0.822040    17A     -0.787207    18A     -0.708754
      19A     -0.673645    20A     -0.645122    21A     -0.618498
      22A     -0.609429    23A     -0.599940    24A     -0.585823
      25A     -0.558890    26A     -0.538837    27A     -0.518903
      28A     -0.502409    29A     -0.491638    30A     -0.425547
      31A     -0.348948    32A     -0.342782

  @DF-RHF Final Energy:  -382.59429215167597

   => Energetics <=

    Nuclear Repulsion Energy =            402.0386586306105414
    One-Electron Energy =               -1315.4136461414886980
    Two-Electron Energy =                 530.7806953592021273
    Total Energy =                       -382.5942921516759725
  Basis Set: (AUG-CC-PVTZ AUX)
    Blend: AUG-CC-PVTZ-RI
    Molecular point group: c1

    Geometry (in Angstrom), charge = 0, multiplicity = 1:

       Center              X                  Y                   Z               Mass
    ------------   -----------------  -----------------  -----------------  -----------------
         O            2.751544352485    -0.837467013304    -0.000390479113    15.994914619570
         C           -0.402307647515     1.017305986696    -0.000039479113    12.000000000000
         C            0.479080352485    -0.084037013304    -0.000190479113    12.000000000000
         C           -1.777123647515     0.752245986696     0.000069520887    12.000000000000
         C           -0.013828647515    -1.396573013304    -0.000244479113    12.000000000000
         C            0.081847352485     2.448747986696     0.000032520887    12.000000000000
         C           -2.269194647515    -0.553702013304     0.000015520887    12.000000000000
         C           -1.384072647515    -1.634724013304    -0.000139479113    12.000000000000
         C            1.951165352485     0.095824986696    -0.000304479113    12.000000000000
         H           -2.476271647515     1.586594986696     0.000187520887     1.007825032230
         H            0.703468352485    -2.213337013304    -0.000362479113     1.007825032230
         H            0.675002452485     2.673056386696    -0.867222079113     1.007825032230
         H           -0.773210647515     3.129727986696     0.000084520887     1.007825032230
         H            0.686072352485     2.677126986696     0.883440520887     1.007825032230
         H           -3.343127647515    -0.725852013304     0.000099520887     1.007825032230
         H           -1.762452647515    -2.653868013304    -0.000183479113     1.007825032230
         H            2.324050352485     1.136796986696    -0.000311479113     1.007825032230

  Basis Set: AUG-CC-PVTZ
    Blend: AUG-CC-PVTZ
  Basis Set: (AUG-CC-PVTZ AUX)
    Blend: AUG-CC-PVTZ-JKFIT
	 Reference Energy          =    -382.5942921516759725 [Eh]
	 Singles Energy            =      -0.0000000000000000 [Eh]
	 Same-Spin Energy          =      -0.4084619510034190 [Eh]
	 Opposite-Spin Energy      =      -1.2868917613525721 [Eh]
	 Correlation Energy        =      -1.6953537123559910 [Eh]
	 Total Energy              =    -384.2896458640319679 [Eh]

	 ================> DF-SCS-MP2 Energies <==================
	-----------------------------------------------------------
	 SCS Same-Spin Scale       =       0.3333333333333333 [-]
	 SCS Opposite-Spin Scale   =       1.2000000000000000 [-]
	 SCS Same-Spin Energy      =      -0.1361539836678063 [Eh]
	 SCS Opposite-Spin Energy  =      -1.5442701136230865 [Eh]
	 SCS Correlation Energy    =      -1.6804240972908928 [Eh]
	 SCS Total Energy          =    -384.2747162489668540 [Eh]
	-----------------------------------------------------------

  Dipole Moment: [D]
     X:    -2.7119      Y:     1.8917      Z:    -0.0045     Total:     3.3065

*** Psi4 exiting successfully. Buy a developer a beer!
