                               Psi4 1.4a3.dev225

  ==> Input File <==

--------------------------------------------------------------------------
#psi4
#
memory 32 gb

molecule  {
0 1
  O        2.7820080    -0.8809860    -0.0002600
  C       -0.3718440     0.9737870     0.0000910
  C        0.5095440    -0.1275560    -0.0000600
  C       -1.7466600     0.7087270     0.0002000
  C        0.0166350    -1.4400920    -0.0001140
  C        0.1123110     2.4052290     0.0001630
  C       -2.2387310    -0.5972210     0.0001460
  C       -1.3536090    -1.6782430    -0.0000090
  C        1.9816290     0.0523060    -0.0001740
  H       -2.4458080     1.5430760     0.0003180
  H        0.7339320    -2.2568560    -0.0002320
  H        0.7165080     2.6337130    -0.8832360
  H       -0.6645235     3.0239107     0.0002102
  H        0.7165360     2.6336080     0.8835710
  H       -3.3126640    -0.7693710     0.0002300
  H       -1.7319890    -2.6973870    -0.0000530
  H        2.3545140     1.0932780    -0.0001810
units angstrom
no_reorient  #important for SAPT in psi4, default
symmetry c1  #important for SAPT in psi4, default
}

set PROPERTIES_ORIGIN ["COM"]
properties('MP2/aug-cc-pvtz', properties = ['dipole'])
--------------------------------------------------------------------------

    Molecular point group: c1
  Charge       = 0
  Multiplicity = 1
  Basis Set: AUG-CC-PVTZ
    Blend: AUG-CC-PVTZ
  Basis Set: (AUG-CC-PVTZ AUX)
    Blend: AUG-CC-PVTZ-JKFIT

    Orbital Energies [Eh]
    ---------------------

    Doubly Occupied:

       1A    -20.551640     2A    -11.334348     3A    -11.269401
       4A    -11.257512     5A    -11.251956     6A    -11.248089
       7A    -11.245598     8A    -11.244093     9A    -11.231666
      10A     -1.376394    11A     -1.171969    12A     -1.067690
      13A     -1.040123    14A     -0.962696    15A     -0.889653
      16A     -0.824041    17A     -0.786893    18A     -0.708288
      19A     -0.676686    20A     -0.644647    21A     -0.620526
      22A     -0.609121    23A     -0.596586    24A     -0.585438
      25A     -0.574816    26A     -0.537910    27A     -0.519006
      28A     -0.502544    29A     -0.491235    30A     -0.425132
      31A     -0.348741    32A     -0.342425

  @DF-RHF Final Energy:  -382.58838580110404

   => Energetics <=

    Nuclear Repulsion Energy =            402.4243638863366073
    One-Electron Energy =               -1316.1517751234773641
    Two-Electron Energy =                 531.1390254360367180
    Total Energy =                       -382.5883858011040957
  Basis Set: (AUG-CC-PVTZ AUX)
    Blend: AUG-CC-PVTZ-RI
    Molecular point group: c1

    Geometry (in Angstrom), charge = 0, multiplicity = 1:

       Center              X                  Y                   Z               Mass
    ------------   -----------------  -----------------  -----------------  -----------------
         O            2.750795012431    -0.836979101222    -0.000254914355    15.994914619570
         C           -0.403056987569     1.017793898778     0.000096085645    12.000000000000
         C            0.478331012431    -0.083549101222    -0.000054914355    12.000000000000
         C           -1.777872987569     0.752733898778     0.000205085645    12.000000000000
         C           -0.014577987569    -1.396085101222    -0.000108914355    12.000000000000
         C            0.081098012431     2.449235898778     0.000168085645    12.000000000000
         C           -2.269943987569    -0.553214101222     0.000151085645    12.000000000000
         C           -1.384821987569    -1.634236101222    -0.000003914355    12.000000000000
         C            1.950416012431     0.096312898778    -0.000168914355    12.000000000000
         H           -2.477020987569     1.587082898778     0.000323085645     1.007825032230
         H            0.702719012431    -2.212849101222    -0.000226914355     1.007825032230
         H            0.685295012431     2.677719898778    -0.883230914355     1.007825032230
         H           -0.695736487569     3.067917598778     0.000215285645     1.007825032230
         H            0.685323012431     2.677614898778     0.883576085645     1.007825032230
         H           -3.343876987569    -0.725364101222     0.000235085645     1.007825032230
         H           -1.763201987569    -2.653380101222    -0.000047914355     1.007825032230
         H            2.323301012431     1.137284898778    -0.000175914355     1.007825032230

  Basis Set: AUG-CC-PVTZ
    Blend: AUG-CC-PVTZ
  Basis Set: (AUG-CC-PVTZ AUX)
    Blend: AUG-CC-PVTZ-JKFIT
	 Reference Energy          =    -382.5883858011040388 [Eh]
	 Singles Energy            =      -0.0000000000000000 [Eh]
	 Same-Spin Energy          =      -0.4084195952921001 [Eh]
	 Opposite-Spin Energy      =      -1.2863659261774110 [Eh]
	 Correlation Energy        =      -1.6947855214695111 [Eh]
	 Total Energy              =    -384.2831713225735371 [Eh]

	 ================> DF-SCS-MP2 Energies <==================
	-----------------------------------------------------------
	 SCS Same-Spin Scale       =       0.3333333333333333 [-]
	 SCS Opposite-Spin Scale   =       1.2000000000000000 [-]
	 SCS Same-Spin Energy      =      -0.1361398650973667 [Eh]
	 SCS Opposite-Spin Energy  =      -1.5436391114128931 [Eh]
	 SCS Correlation Energy    =      -1.6797789765102598 [Eh]
	 SCS Total Energy          =    -384.2681647776142881 [Eh]
	-----------------------------------------------------------

  Dipole Moment: [D]
     X:    -2.7376      Y:     1.9329      Z:     0.0003     Total:     3.3512

*** Psi4 exiting successfully. Buy a developer a beer!
