                               Psi4 1.4a3.dev225

  ==> Input File <==

--------------------------------------------------------------------------
#psi4
#
memory 32 gb

molecule  {
0 1
  O        2.7820080    -0.8809860    -0.0002600
  C       -0.3718440     0.9737870     0.0000910
  C        0.5095440    -0.1275560    -0.0000600
  C       -1.7466600     0.7087270     0.0002000
  C        0.0166350    -1.4400920    -0.0001140
  C        0.1123110     2.4052290     0.0001630
  C       -2.2387310    -0.5972210     0.0001460
  C       -1.5506550    -1.7124900     0.0000061
  C        1.9816290     0.0523060    -0.0001740
  H       -2.4458080     1.5430760     0.0003180
  H        0.7339320    -2.2568560    -0.0002320
  H        0.7165080     2.6337130    -0.8832360
  H       -0.7427470     3.0862090     0.0002150
  H        0.7165360     2.6336080     0.8835710
  H       -3.3126640    -0.7693710     0.0002300
  H       -1.7319890    -2.6973870    -0.0000530
  H        2.3545140     1.0932780    -0.0001810
units angstrom
no_reorient  #important for SAPT in psi4, default
symmetry c1  #important for SAPT in psi4, default
}

set PROPERTIES_ORIGIN ["COM"]
properties('MP2/aug-cc-pvtz', properties = ['dipole'])
--------------------------------------------------------------------------

    Molecular point group: c1
  Charge       = 0
  Multiplicity = 1
  Basis Set: AUG-CC-PVTZ
    Blend: AUG-CC-PVTZ
  Basis Set: (AUG-CC-PVTZ AUX)
    Blend: AUG-CC-PVTZ-JKFIT

    Orbital Energies [Eh]
    ---------------------

    Doubly Occupied:

       1A    -20.552172     2A    -11.336006     3A    -11.273644
       4A    -11.269234     5A    -11.249662     6A    -11.248917
       7A    -11.246192     8A    -11.243513     9A    -11.243441
      10A     -1.377119    11A     -1.166305    12A     -1.072059
      13A     -1.031770    14A     -0.953769    15A     -0.887933
      16A     -0.828793    17A     -0.786596    18A     -0.711047
      19A     -0.674467    20A     -0.654618    21A     -0.623175
      22A     -0.619438    23A     -0.596745    24A     -0.578330
      25A     -0.554073    26A     -0.537211    27A     -0.520243
      28A     -0.489721    29A     -0.482452    30A     -0.424118
      31A     -0.364351    32A     -0.326409

  @DF-RHF Final Energy:  -382.55299330414101

   => Energetics <=

    Nuclear Repulsion Energy =            399.9043397703077858
    One-Electron Energy =               -1311.0676226685854999
    Two-Electron Energy =                 528.6102895941365887
    Total Energy =                       -382.5529933041410686
  Basis Set: (AUG-CC-PVTZ AUX)
    Blend: AUG-CC-PVTZ-RI
    Molecular point group: c1

    Geometry (in Angstrom), charge = 0, multiplicity = 1:

       Center              X                  Y                   Z               Mass
    ------------   -----------------  -----------------  -----------------  -----------------
         O            2.771146821345    -0.834079006095    -0.000256463925    15.994914619570
         C           -0.382705178655     1.020693993905     0.000094536075    12.000000000000
         C            0.498682821345    -0.080649006095    -0.000056463925    12.000000000000
         C           -1.757521178655     0.755633993905     0.000203536075    12.000000000000
         C            0.005773821345    -1.393185006095    -0.000110463925    12.000000000000
         C            0.101449821345     2.452135993905     0.000166536075    12.000000000000
         C           -2.249592178655    -0.550314006095     0.000149536075    12.000000000000
         C           -1.561516178655    -1.665583006095     0.000009636075    12.000000000000
         C            1.970767821345     0.099212993905    -0.000170463925    12.000000000000
         H           -2.456669178655     1.589982993905     0.000321536075     1.007825032230
         H            0.723070821345    -2.209949006095    -0.000228463925     1.007825032230
         H            0.705646821345     2.680619993905    -0.883232463925     1.007825032230
         H           -0.753608178655     3.133115993905     0.000218536075     1.007825032230
         H            0.705674821345     2.680514993905     0.883574536075     1.007825032230
         H           -3.323525178655    -0.722464006095     0.000233536075     1.007825032230
         H           -1.742850178655    -2.650480006095    -0.000049463925     1.007825032230
         H            2.343652821345     1.140184993905    -0.000177463925     1.007825032230

  Basis Set: AUG-CC-PVTZ
    Blend: AUG-CC-PVTZ
  Basis Set: (AUG-CC-PVTZ AUX)
    Blend: AUG-CC-PVTZ-JKFIT
	 Reference Energy          =    -382.5529933041410118 [Eh]
	 Singles Energy            =      -0.0000000000000000 [Eh]
	 Same-Spin Energy          =      -0.4077414761852004 [Eh]
	 Opposite-Spin Energy      =      -1.2889712477799216 [Eh]
	 Correlation Energy        =      -1.6967127239651218 [Eh]
	 Total Energy              =    -384.2497060281061181 [Eh]

	 ================> DF-SCS-MP2 Energies <==================
	-----------------------------------------------------------
	 SCS Same-Spin Scale       =       0.3333333333333333 [-]
	 SCS Opposite-Spin Scale   =       1.2000000000000000 [-]
	 SCS Same-Spin Energy      =      -0.1359138253950668 [Eh]
	 SCS Opposite-Spin Energy  =      -1.5467654973359057 [Eh]
	 SCS Correlation Energy    =      -1.6826793227309724 [Eh]
	 SCS Total Energy          =    -384.2356726268719740 [Eh]
	-----------------------------------------------------------

  Dipole Moment: [D]
     X:    -2.6093      Y:     1.7992      Z:     0.0003     Total:     3.1695

*** Psi4 exiting successfully. Buy a developer a beer!
