                               Psi4 1.4a3.dev225

  ==> Input File <==

--------------------------------------------------------------------------
#psi4
#
memory 32 gb

molecule  {
0 1
  O        2.7820080    -0.8809860    -0.0002600
  C       -0.3718440     0.9737870     0.0000910
  C        0.5095440    -0.1275560    -0.0000600
  C       -1.7466600     0.7087270     0.0002000
  C        0.0166350    -1.4400920    -0.0001140
  C        0.1059030     2.3862833     0.0001620
  C       -2.2387310    -0.5972210     0.0001460
  C       -1.3536090    -1.6782430    -0.0000090
  C        1.9816290     0.0523060    -0.0001740
  H       -2.4458080     1.5430760     0.0003180
  H        0.7339320    -2.2568560    -0.0002320
  H        0.7165080     2.6337130    -0.8832360
  H       -0.7427470     3.0862090     0.0002150
  H        0.7165360     2.6336080     0.8835710
  H       -3.3126640    -0.7693710     0.0002300
  H       -1.7319890    -2.6973870    -0.0000530
  H        2.3545140     1.0932780    -0.0001810
units angstrom
no_reorient  #important for SAPT in psi4, default
symmetry c1  #important for SAPT in psi4, default
}

set PROPERTIES_ORIGIN ["COM"]
properties('MP2/aug-cc-pvtz', properties = ['dipole'])
--------------------------------------------------------------------------

    Molecular point group: c1
  Charge       = 0
  Multiplicity = 1
  Basis Set: AUG-CC-PVTZ
    Blend: AUG-CC-PVTZ
  Basis Set: (AUG-CC-PVTZ AUX)
    Blend: AUG-CC-PVTZ-JKFIT

    Orbital Energies [Eh]
    ---------------------

    Doubly Occupied:

       1A    -20.552141     2A    -11.334867     3A    -11.269249
       4A    -11.257619     5A    -11.252351     6A    -11.248744
       7A    -11.245670     8A    -11.244432     9A    -11.244411
      10A     -1.376861    11A     -1.172821    12A     -1.067304
      13A     -1.040150    14A     -0.954725    15A     -0.890071
      16A     -0.821733    17A     -0.787167    18A     -0.709090
      19A     -0.674146    20A     -0.645878    21A     -0.618848
      22A     -0.609648    23A     -0.595634    24A     -0.588106
      25A     -0.555579    26A     -0.537583    27A     -0.519010
      28A     -0.503884    29A     -0.491111    30A     -0.425446
      31A     -0.349061    32A     -0.342312

  @DF-RHF Final Energy:  -382.59355446847951

   => Energetics <=

    Nuclear Repulsion Energy =            402.2897301257517029
    One-Electron Energy =               -1315.9152685703695624
    Two-Electron Energy =                 531.0319839761383491
    Total Energy =                       -382.5935544684795104
  Basis Set: (AUG-CC-PVTZ AUX)
    Blend: AUG-CC-PVTZ-RI
    Molecular point group: c1

    Geometry (in Angstrom), charge = 0, multiplicity = 1:

       Center              X                  Y                   Z               Mass
    ------------   -----------------  -----------------  -----------------  -----------------
         O            2.752092154069    -0.835608403070    -0.000254854696    15.994914619570
         C           -0.401759845931     1.019164596930     0.000096145304    12.000000000000
         C            0.479628154069    -0.082178403070    -0.000054854696    12.000000000000
         C           -1.776575845931     0.754104596930     0.000205145304    12.000000000000
         C           -0.013280845931    -1.394714403070    -0.000108854696    12.000000000000
         C            0.075987154069     2.431660896930     0.000167145304    12.000000000000
         C           -2.268646845931    -0.551843403070     0.000151145304    12.000000000000
         C           -1.383524845931    -1.632865403070    -0.000003854696    12.000000000000
         C            1.951713154069     0.097683596930    -0.000168854696    12.000000000000
         H           -2.475723845931     1.588453596930     0.000323145304     1.007825032230
         H            0.704016154069    -2.211478403070    -0.000226854696     1.007825032230
         H            0.686592154069     2.679090596930    -0.883230854696     1.007825032230
         H           -0.772662845931     3.131586596930     0.000220145304     1.007825032230
         H            0.686620154069     2.678985596930     0.883576145304     1.007825032230
         H           -3.342579845931    -0.723993403070     0.000235145304     1.007825032230
         H           -1.761904845931    -2.652009403070    -0.000047854696     1.007825032230
         H            2.324598154069     1.138655596930    -0.000175854696     1.007825032230

  Basis Set: AUG-CC-PVTZ
    Blend: AUG-CC-PVTZ
  Basis Set: (AUG-CC-PVTZ AUX)
    Blend: AUG-CC-PVTZ-JKFIT
	 Reference Energy          =    -382.5935544684795104 [Eh]
	 Singles Energy            =      -0.0000000000000000 [Eh]
	 Same-Spin Energy          =      -0.4086635603189707 [Eh]
	 Opposite-Spin Energy      =      -1.2872174084580197 [Eh]
	 Correlation Energy        =      -1.6958809687769905 [Eh]
	 Total Energy              =    -384.2894354372564862 [Eh]

	 ================> DF-SCS-MP2 Energies <==================
	-----------------------------------------------------------
	 SCS Same-Spin Scale       =       0.3333333333333333 [-]
	 SCS Opposite-Spin Scale   =       1.2000000000000000 [-]
	 SCS Same-Spin Energy      =      -0.1362211867729902 [Eh]
	 SCS Opposite-Spin Energy  =      -1.5446608901496235 [Eh]
	 SCS Correlation Energy    =      -1.6808820769226136 [Eh]
	 SCS Total Energy          =    -384.2744365454021249 [Eh]
	-----------------------------------------------------------

  Dipole Moment: [D]
     X:    -2.7144      Y:     1.8893      Z:     0.0003     Total:     3.3072

*** Psi4 exiting successfully. Buy a developer a beer!
