                               Psi4 1.4a3.dev225

  ==> Input File <==

--------------------------------------------------------------------------
#psi4
#
memory 32 gb

molecule  {
0 1
  O        2.7820080    -0.8809860    -0.0002600
  C       -0.3718440     0.9737870     0.0000910
  C        0.5095440    -0.1275560    -0.0000600
  C       -1.7466600     0.7087270     0.0002000
  C        0.0166350    -1.4400920    -0.0001140
  C        0.1123110     2.4052290     0.0001630
  C       -2.2387310    -0.5972210     0.0001460
  C       -1.3536090    -1.6782430    -0.0000090
  C        1.9816290     0.0523060    -0.0001740
  H       -2.4458080     1.5430760     0.0003180
  H        0.7339320    -2.2568560    -0.0002320
  H        0.7165080     2.6337130    -0.8832360
  H       -0.7427470     3.0862090     0.0002150
  H        0.7165360     2.6336080     0.8835710
  H       -3.3126640    -0.7693710     0.0002300
  H       -1.7319890    -2.6973870    -0.0000530
  H        2.3477695     1.0744495    -0.0001809
units angstrom
no_reorient  #important for SAPT in psi4, default
symmetry c1  #important for SAPT in psi4, default
}

set PROPERTIES_ORIGIN ["COM"]
properties('MP2/aug-cc-pvtz', properties = ['dipole'])
--------------------------------------------------------------------------

    Molecular point group: c1
  Charge       = 0
  Multiplicity = 1
  Basis Set: AUG-CC-PVTZ
    Blend: AUG-CC-PVTZ
  Basis Set: (AUG-CC-PVTZ AUX)
    Blend: AUG-CC-PVTZ-JKFIT

    Orbital Energies [Eh]
    ---------------------

    Doubly Occupied:

       1A    -20.551696     2A    -11.332596     3A    -11.270018
       4A    -11.257466     5A    -11.252063     6A    -11.248385
       7A    -11.245584     8A    -11.244239     9A    -11.243887
      10A     -1.376623    11A     -1.171880    12A     -1.065363
      13A     -1.039790    14A     -0.955307    15A     -0.891400
      16A     -0.821704    17A     -0.789403    18A     -0.709639
      19A     -0.673901    20A     -0.645071    21A     -0.619126
      22A     -0.609561    23A     -0.597602    24A     -0.585594
      25A     -0.558588    26A     -0.538202    27A     -0.518692
      28A     -0.502408    29A     -0.491365    30A     -0.426305
      31A     -0.348812    32A     -0.342658

  @DF-RHF Final Energy:  -382.59450126117969

   => Energetics <=

    Nuclear Repulsion Energy =            402.0453542271485503
    One-Electron Energy =               -1315.4298547363455327
    Two-Electron Energy =                 530.7899992480173523
    Total Energy =                       -382.5945012611796301
  Basis Set: (AUG-CC-PVTZ AUX)
    Blend: AUG-CC-PVTZ-RI
    Molecular point group: c1

    Geometry (in Angstrom), charge = 0, multiplicity = 1:

       Center              X                  Y                   Z               Mass
    ------------   -----------------  -----------------  -----------------  -----------------
         O            2.751508277881    -0.837344009263    -0.000254955488    15.994914619570
         C           -0.402343722119     1.017428990737     0.000096044512    12.000000000000
         C            0.479044277881    -0.083914009263    -0.000054955488    12.000000000000
         C           -1.777159722119     0.752368990737     0.000205044512    12.000000000000
         C           -0.013864722119    -1.396450009263    -0.000108955488    12.000000000000
         C            0.081811277881     2.448870990737     0.000168044512    12.000000000000
         C           -2.269230722119    -0.553579009263     0.000151044512    12.000000000000
         C           -1.384108722119    -1.634601009263    -0.000003955488    12.000000000000
         C            1.951129277881     0.095947990737    -0.000168955488    12.000000000000
         H           -2.476307722119     1.586717990737     0.000323044512     1.007825032230
         H            0.703432277881    -2.213214009263    -0.000226955488     1.007825032230
         H            0.686008277881     2.677354990737    -0.883230955488     1.007825032230
         H           -0.773246722119     3.129850990737     0.000220044512     1.007825032230
         H            0.686036277881     2.677249990737     0.883576044512     1.007825032230
         H           -3.343163722119    -0.725729009263     0.000235044512     1.007825032230
         H           -1.762488722119    -2.653745009263    -0.000047955488     1.007825032230
         H            2.317269777881     1.118091490737    -0.000175855488     1.007825032230

  Basis Set: AUG-CC-PVTZ
    Blend: AUG-CC-PVTZ
  Basis Set: (AUG-CC-PVTZ AUX)
    Blend: AUG-CC-PVTZ-JKFIT
	 Reference Energy          =    -382.5945012611796869 [Eh]
	 Singles Energy            =      -0.0000000000000000 [Eh]
	 Same-Spin Energy          =      -0.4083739093564373 [Eh]
	 Opposite-Spin Energy      =      -1.2868145654039540 [Eh]
	 Correlation Energy        =      -1.6951884747603914 [Eh]
	 Total Energy              =    -384.2896897359401009 [Eh]

	 ================> DF-SCS-MP2 Energies <==================
	-----------------------------------------------------------
	 SCS Same-Spin Scale       =       0.3333333333333333 [-]
	 SCS Opposite-Spin Scale   =       1.2000000000000000 [-]
	 SCS Same-Spin Energy      =      -0.1361246364521458 [Eh]
	 SCS Opposite-Spin Energy  =      -1.5441774784847448 [Eh]
	 SCS Correlation Energy    =      -1.6803021149368906 [Eh]
	 SCS Total Energy          =    -384.2748033761165516 [Eh]
	-----------------------------------------------------------

  Dipole Moment: [D]
     X:    -2.7081      Y:     1.9046      Z:     0.0003     Total:     3.3108

*** Psi4 exiting successfully. Buy a developer a beer!
