                               Psi4 1.4a3.dev225

  ==> Input File <==

--------------------------------------------------------------------------
#psi4
#
memory 32 gb

molecule  {
0 1
  O        2.7820080    -0.8809860    -0.0002600
  C       -0.3718440     0.9737870     0.0000910
  C        0.5095440    -0.1275560    -0.0000600
  C       -1.7925367     0.7251045     0.0002054
  C        0.0166350    -1.4400920    -0.0001140
  C        0.1123110     2.4052290     0.0001630
  C       -2.2387310    -0.5972210     0.0001460
  C       -1.3536090    -1.6782430    -0.0000090
  C        1.9816290     0.0523060    -0.0001740
  H       -2.4458080     1.5430760     0.0003180
  H        0.7339320    -2.2568560    -0.0002320
  H        0.7165080     2.6337130    -0.8832360
  H       -0.7427470     3.0862090     0.0002150
  H        0.7165360     2.6336080     0.8835710
  H       -3.3126640    -0.7693710     0.0002300
  H       -1.7319890    -2.6973870    -0.0000530
  H        2.3545140     1.0932780    -0.0001810
units angstrom
no_reorient  #important for SAPT in psi4, default
symmetry c1  #important for SAPT in psi4, default
}

set PROPERTIES_ORIGIN ["COM"]
properties('MP2/aug-cc-pvtz', properties = ['dipole'])
--------------------------------------------------------------------------

    Molecular point group: c1
  Charge       = 0
  Multiplicity = 1
  Basis Set: AUG-CC-PVTZ
    Blend: AUG-CC-PVTZ
  Basis Set: (AUG-CC-PVTZ AUX)
    Blend: AUG-CC-PVTZ-JKFIT

    Orbital Energies [Eh]
    ---------------------

    Doubly Occupied:

       1A    -20.552264     2A    -11.335226     3A    -11.275674
       4A    -11.257693     5A    -11.252608     6A    -11.248791
       7A    -11.246787     8A    -11.244064     9A    -11.244048
      10A     -1.377036    11A     -1.167986    12A     -1.063951
      13A     -1.040101    14A     -0.955067    15A     -0.887178
      16A     -0.824225    17A     -0.787554    18A     -0.708567
      19A     -0.673305    20A     -0.645368    21A     -0.622905
      22A     -0.611213    23A     -0.596973    24A     -0.584212
      25A     -0.561382    26A     -0.538315    27A     -0.511665
      28A     -0.508437    29A     -0.489671    30A     -0.425310
      31A     -0.350355    32A     -0.338683

  @DF-RHF Final Energy:  -382.59107703268620

   => Energetics <=

    Nuclear Repulsion Energy =            401.1260717597465373
    One-Electron Energy =               -1313.5810661854893624
    Two-Electron Energy =                 529.8639173930566812
    Total Energy =                       -382.5910770326861439
  Basis Set: (AUG-CC-PVTZ AUX)
    Blend: AUG-CC-PVTZ-RI
    Molecular point group: c1

    Geometry (in Angstrom), charge = 0, multiplicity = 1:

       Center              X                  Y                   Z               Mass
    ------------   -----------------  -----------------  -----------------  -----------------
         O            2.756037133277    -0.839139030873    -0.000255494390    15.994914619570
         C           -0.397814866723     1.015633969127     0.000095505610    12.000000000000
         C            0.483573133277    -0.085709030873    -0.000055494390    12.000000000000
         C           -1.818507566723     0.766951469127     0.000209905610    12.000000000000
         C           -0.009335866723    -1.398245030873    -0.000109494390    12.000000000000
         C            0.086340133277     2.447075969127     0.000167505610    12.000000000000
         C           -2.264701866723    -0.555374030873     0.000150505610    12.000000000000
         C           -1.379579866723    -1.636396030873    -0.000004494390    12.000000000000
         C            1.955658133277     0.094152969127    -0.000169494390    12.000000000000
         H           -2.471778866723     1.584922969127     0.000322505610     1.007825032230
         H            0.707961133277    -2.215009030873    -0.000227494390     1.007825032230
         H            0.690537133277     2.675559969127    -0.883231494390     1.007825032230
         H           -0.768717866723     3.128055969127     0.000219505610     1.007825032230
         H            0.690565133277     2.675454969127     0.883575505610     1.007825032230
         H           -3.338634866723    -0.727524030873     0.000234505610     1.007825032230
         H           -1.757959866723    -2.655540030873    -0.000048494390     1.007825032230
         H            2.328543133277     1.135124969127    -0.000176494390     1.007825032230

  Basis Set: AUG-CC-PVTZ
    Blend: AUG-CC-PVTZ
  Basis Set: (AUG-CC-PVTZ AUX)
    Blend: AUG-CC-PVTZ-JKFIT
	 Reference Energy          =    -382.5910770326862007 [Eh]
	 Singles Energy            =      -0.0000000000000000 [Eh]
	 Same-Spin Energy          =      -0.4083190163269120 [Eh]
	 Opposite-Spin Energy      =      -1.2871224430684094 [Eh]
	 Correlation Energy        =      -1.6954414593953215 [Eh]
	 Total Energy              =    -384.2865184920815409 [Eh]

	 ================> DF-SCS-MP2 Energies <==================
	-----------------------------------------------------------
	 SCS Same-Spin Scale       =       0.3333333333333333 [-]
	 SCS Opposite-Spin Scale   =       1.2000000000000000 [-]
	 SCS Same-Spin Energy      =      -0.1361063387756373 [Eh]
	 SCS Opposite-Spin Energy  =      -1.5445469316820912 [Eh]
	 SCS Correlation Energy    =      -1.6806532704577286 [Eh]
	 SCS Total Energy          =    -384.2717303031439542 [Eh]
	-----------------------------------------------------------

  Dipole Moment: [D]
     X:    -2.7142      Y:     1.9172      Z:     0.0003     Total:     3.3230

*** Psi4 exiting successfully. Buy a developer a beer!
