                               Psi4 1.4a3.dev225

  ==> Input File <==

--------------------------------------------------------------------------
#psi4
#
memory 32 gb

molecule  {
0 1
  O        2.7820080    -0.8809860    -0.0002600
  C       -0.3718440     0.9737870     0.0000910
  C        0.5095440    -0.1275560    -0.0000600
  C       -1.7466600     0.7087270     0.0002000
  C        0.0166350    -1.4400920    -0.0001140
  C        0.1123110     2.4052290     0.0001630
  C       -2.2387310    -0.5972210     0.0001460
  C       -1.3536090    -1.6782430    -0.0000090
  C        1.9816290     0.0523060    -0.0001740
  H       -2.4458080     1.5430760     0.0003180
  H        0.7339320    -2.2568560    -0.0002320
  H        0.7165080     2.6337130    -0.8832360
  H       -0.7427470     3.0862090     0.0002150
  H        0.7165360     2.6336080     0.8835710
  H       -3.3126640    -0.7693710     0.0002300
  H       -1.7319890    -2.6973870    -0.0000530
  H        2.3612585     1.1121065    -0.0001811
units angstrom
no_reorient  #important for SAPT in psi4, default
symmetry c1  #important for SAPT in psi4, default
}

set PROPERTIES_ORIGIN ["COM"]
properties('MP2/aug-cc-pvtz', properties = ['dipole'])
--------------------------------------------------------------------------

    Molecular point group: c1
  Charge       = 0
  Multiplicity = 1
  Basis Set: AUG-CC-PVTZ
    Blend: AUG-CC-PVTZ
  Basis Set: (AUG-CC-PVTZ AUX)
    Blend: AUG-CC-PVTZ-JKFIT

    Orbital Energies [Eh]
    ---------------------

    Doubly Occupied:

       1A    -20.552530     2A    -11.337123     3A    -11.270223
       4A    -11.257709     5A    -11.252485     6A    -11.249092
       7A    -11.245720     8A    -11.244460     9A    -11.243692
      10A     -1.377074    11A     -1.172099    12A     -1.065353
      13A     -1.039972    14A     -0.955230    15A     -0.888722
      16A     -0.821946    17A     -0.784952    18A     -0.707539
      19A     -0.673479    20A     -0.644894    21A     -0.617889
      22A     -0.609203    23A     -0.597475    24A     -0.585681
      25A     -0.558578    26A     -0.538653    27A     -0.518864
      28A     -0.502599    29A     -0.491706    30A     -0.424663
      31A     -0.349173    32A     -0.342824

  @DF-RHF Final Energy:  -382.59354335403032

   => Energetics <=

    Nuclear Repulsion Energy =            401.8614477352592758
    One-Electron Energy =               -1315.0667778195936535
    Two-Electron Energy =                 530.6117867303040612
    Total Energy =                       -382.5935433540303166
  Basis Set: (AUG-CC-PVTZ AUX)
    Blend: AUG-CC-PVTZ-RI
    Molecular point group: c1

    Geometry (in Angstrom), charge = 0, multiplicity = 1:

       Center              X                  Y                   Z               Mass
    ------------   -----------------  -----------------  -----------------  -----------------
         O            2.751395044221    -0.837660121647    -0.000254953809    15.994914619570
         C           -0.402456955779     1.017112878353     0.000096046191    12.000000000000
         C            0.478931044221    -0.084230121647    -0.000054953809    12.000000000000
         C           -1.777272955779     0.752052878353     0.000205046191    12.000000000000
         C           -0.013977955779    -1.396766121647    -0.000108953809    12.000000000000
         C            0.081698044221     2.448554878353     0.000168046191    12.000000000000
         C           -2.269343955779    -0.553895121647     0.000151046191    12.000000000000
         C           -1.384221955779    -1.634917121647    -0.000003953809    12.000000000000
         C            1.951016044221     0.095631878353    -0.000168953809    12.000000000000
         H           -2.476420955779     1.586401878353     0.000323046191     1.007825032230
         H            0.703319044221    -2.213530121647    -0.000226953809     1.007825032230
         H            0.685895044221     2.677038878353    -0.883230953809     1.007825032230
         H           -0.773359955779     3.129534878353     0.000220046191     1.007825032230
         H            0.685923044221     2.676933878353     0.883576046191     1.007825032230
         H           -3.343276955779    -0.726045121647     0.000235046191     1.007825032230
         H           -1.762601955779    -2.654061121647    -0.000047953809     1.007825032230
         H            2.330645544221     1.155432378353    -0.000176053809     1.007825032230

  Basis Set: AUG-CC-PVTZ
    Blend: AUG-CC-PVTZ
  Basis Set: (AUG-CC-PVTZ AUX)
    Blend: AUG-CC-PVTZ-JKFIT
	 Reference Energy          =    -382.5935433540303166 [Eh]
	 Singles Energy            =      -0.0000000000000000 [Eh]
	 Same-Spin Energy          =      -0.4085636287245042 [Eh]
	 Opposite-Spin Energy      =      -1.2872315988485930 [Eh]
	 Correlation Energy        =      -1.6957952275730972 [Eh]
	 Total Energy              =    -384.2893385816034311 [Eh]

	 ================> DF-SCS-MP2 Energies <==================
	-----------------------------------------------------------
	 SCS Same-Spin Scale       =       0.3333333333333333 [-]
	 SCS Opposite-Spin Scale   =       1.2000000000000000 [-]
	 SCS Same-Spin Energy      =      -0.1361878762415014 [Eh]
	 SCS Opposite-Spin Energy  =      -1.5446779186183115 [Eh]
	 SCS Correlation Energy    =      -1.6808657948598129 [Eh]
	 SCS Total Energy          =    -384.2744091488901290 [Eh]
	-----------------------------------------------------------

  Dipole Moment: [D]
     X:    -2.7255      Y:     1.8671      Z:     0.0003     Total:     3.3037

*** Psi4 exiting successfully. Buy a developer a beer!
