                               Psi4 1.4a3.dev225

  ==> Input File <==

--------------------------------------------------------------------------
#psi4
#
memory 32 gb

molecule  {
0 1
  O        2.7820080    -0.8809860    -0.0002600
  C       -0.3718440     0.9737870     0.0000910
  C        0.5095440    -0.1275560    -0.0000600
  C       -1.7466600     0.7087270     0.0002000
  C        0.0166350    -1.4400920    -0.0001140
  C        0.1123110     2.4052290     0.0001630
  C       -2.2387310    -0.5972210     0.0001460
  C       -1.3536090    -1.6782430    -0.0000090
  C        1.9816290     0.0523060    -0.0001740
  H       -2.4458080     1.5430760     0.0003180
  H        0.7471295    -2.2718835    -0.0002342
  H        0.7165080     2.6337130    -0.8832360
  H       -0.7427470     3.0862090     0.0002150
  H        0.7165360     2.6336080     0.8835710
  H       -3.3126640    -0.7693710     0.0002300
  H       -1.7319890    -2.6973870    -0.0000530
  H        2.3545140     1.0932780    -0.0001810
units angstrom
no_reorient  #important for SAPT in psi4, default
symmetry c1  #important for SAPT in psi4, default
}

set PROPERTIES_ORIGIN ["COM"]
properties('MP2/aug-cc-pvtz', properties = ['dipole'])
--------------------------------------------------------------------------

    Molecular point group: c1
  Charge       = 0
  Multiplicity = 1
  Basis Set: AUG-CC-PVTZ
    Blend: AUG-CC-PVTZ
  Basis Set: (AUG-CC-PVTZ AUX)
    Blend: AUG-CC-PVTZ-JKFIT

    Orbital Energies [Eh]
    ---------------------

    Doubly Occupied:

       1A    -20.552070     2A    -11.334874     3A    -11.270195
       4A    -11.257645     5A    -11.254294     6A    -11.248881
       7A    -11.245654     8A    -11.244430     9A    -11.243831
      10A     -1.376808    11A     -1.171932    12A     -1.065304
      13A     -1.039418    14A     -0.955207    15A     -0.889635
      16A     -0.820777    17A     -0.787026    18A     -0.708397
      19A     -0.672827    20A     -0.644106    21A     -0.618108
      22A     -0.608472    23A     -0.597573    24A     -0.585222
      25A     -0.558597    26A     -0.538418    27A     -0.518466
      28A     -0.501483    29A     -0.491558    30A     -0.425483
      31A     -0.349012    32A     -0.342770

  @DF-RHF Final Energy:  -382.59355606176337

   => Energetics <=

    Nuclear Repulsion Energy =            401.8557652832835174
    One-Electron Energy =               -1315.0616968015897328
    Two-Electron Energy =                 530.6123754565428499
    Total Energy =                       -382.5935560617633655
  Basis Set: (AUG-CC-PVTZ AUX)
    Blend: AUG-CC-PVTZ-RI
    Molecular point group: c1

    Geometry (in Angstrom), charge = 0, multiplicity = 1:

       Center              X                  Y                   Z               Mass
    ------------   -----------------  -----------------  -----------------  -----------------
         O            2.751340874393    -0.837375916828    -0.000254936180    15.994914619570
         C           -0.402511125607     1.017397083172     0.000096063820    12.000000000000
         C            0.478876874393    -0.083945916828    -0.000054936180    12.000000000000
         C           -1.777327125607     0.752337083172     0.000205063820    12.000000000000
         C           -0.014032125607    -1.396481916828    -0.000108936180    12.000000000000
         C            0.081643874393     2.448839083172     0.000168063820    12.000000000000
         C           -2.269398125607    -0.553610916828     0.000151063820    12.000000000000
         C           -1.384276125607    -1.634632916828    -0.000003936180    12.000000000000
         C            1.950961874393     0.095916083172    -0.000168936180    12.000000000000
         H           -2.476475125607     1.586686083172     0.000323063820     1.007825032230
         H            0.716462374393    -2.228273416828    -0.000229136180     1.007825032230
         H            0.685840874393     2.677323083172    -0.883230936180     1.007825032230
         H           -0.773414125607     3.129819083172     0.000220063820     1.007825032230
         H            0.685868874393     2.677218083172     0.883576063820     1.007825032230
         H           -3.343331125607    -0.725760916828     0.000235063820     1.007825032230
         H           -1.762656125607    -2.653776916828    -0.000047936180     1.007825032230
         H            2.323846874393     1.136888083172    -0.000175936180     1.007825032230

  Basis Set: AUG-CC-PVTZ
    Blend: AUG-CC-PVTZ
  Basis Set: (AUG-CC-PVTZ AUX)
    Blend: AUG-CC-PVTZ-JKFIT
	 Reference Energy          =    -382.5935560617633655 [Eh]
	 Singles Energy            =      -0.0000000000000000 [Eh]
	 Same-Spin Energy          =      -0.4085387057639368 [Eh]
	 Opposite-Spin Energy      =      -1.2871944576297487 [Eh]
	 Correlation Energy        =      -1.6957331633936854 [Eh]
	 Total Energy              =    -384.2892892251570629 [Eh]

	 ================> DF-SCS-MP2 Energies <==================
	-----------------------------------------------------------
	 SCS Same-Spin Scale       =       0.3333333333333333 [-]
	 SCS Opposite-Spin Scale   =       1.2000000000000000 [-]
	 SCS Same-Spin Energy      =      -0.1361795685879789 [Eh]
	 SCS Opposite-Spin Energy  =      -1.5446333491556985 [Eh]
	 SCS Correlation Energy    =      -1.6808129177436775 [Eh]
	 SCS Total Energy          =    -384.2743689795070168 [Eh]
	-----------------------------------------------------------

  Dipole Moment: [D]
     X:    -2.7140      Y:     1.8879      Z:     0.0003     Total:     3.3060

*** Psi4 exiting successfully. Buy a developer a beer!
