                               Psi4 1.4a3.dev225

  ==> Input File <==

--------------------------------------------------------------------------
#psi4
#
memory 32 gb

molecule  {
0 1
  O        2.7820080    -0.8809860    -0.0002600
  C       -0.3718440     0.9737870     0.0000910
  C        0.5095440    -0.1275560    -0.0000600
  C       -1.7466600     0.7087270     0.0002000
  C        0.0166350    -1.4400920    -0.0001140
  C        0.1763907     2.5946856     0.0001725
  C       -2.2387310    -0.5972210     0.0001460
  C       -1.3536090    -1.6782430    -0.0000090
  C        1.9816290     0.0523060    -0.0001740
  H       -2.4458080     1.5430760     0.0003180
  H        0.7339320    -2.2568560    -0.0002320
  H        0.7165080     2.6337130    -0.8832360
  H       -0.7427470     3.0862090     0.0002150
  H        0.7165360     2.6336080     0.8835710
  H       -3.3126640    -0.7693710     0.0002300
  H       -1.7319890    -2.6973870    -0.0000530
  H        2.3545140     1.0932780    -0.0001810
units angstrom
no_reorient  #important for SAPT in psi4, default
symmetry c1  #important for SAPT in psi4, default
}

set PROPERTIES_ORIGIN ["COM"]
properties('MP2/aug-cc-pvtz', properties = ['dipole'])
--------------------------------------------------------------------------

    Molecular point group: c1
  Charge       = 0
  Multiplicity = 1
  Basis Set: AUG-CC-PVTZ
    Blend: AUG-CC-PVTZ
  Basis Set: (AUG-CC-PVTZ AUX)
    Blend: AUG-CC-PVTZ-JKFIT

    Orbital Energies [Eh]
    ---------------------

    Doubly Occupied:

       1A    -20.551616     2A    -11.334738     3A    -11.275307
       4A    -11.257119     5A    -11.251441     6A    -11.248561
       7A    -11.245589     8A    -11.244372     9A    -11.243717
      10A     -1.376481    11A     -1.166465    12A     -1.051924
      13A     -1.036631    14A     -0.962150    15A     -0.888892
      16A     -0.821623    17A     -0.786403    18A     -0.705286
      19A     -0.670813    20A     -0.640014    21A     -0.622005
      22A     -0.618893    23A     -0.607803    24A     -0.590743
      25A     -0.562634    26A     -0.543240    27A     -0.515885
      28A     -0.493366    29A     -0.468495    30A     -0.424900
      31A     -0.348294    32A     -0.344673

  @DF-RHF Final Energy:  -382.56752610856063

   => Energetics <=

    Nuclear Repulsion Energy =            398.7740906980052387
    One-Electron Energy =               -1308.8830842257470977
    Two-Electron Energy =                 527.5414674191812310
    Total Energy =                       -382.5675261085606280
  Basis Set: (AUG-CC-PVTZ AUX)
    Blend: AUG-CC-PVTZ-RI
    Molecular point group: c1

    Geometry (in Angstrom), charge = 0, multiplicity = 1:

       Center              X                  Y                   Z               Mass
    ------------   -----------------  -----------------  -----------------  -----------------
         O            2.745046760860    -0.856438649328    -0.000255904193    15.994914619570
         C           -0.408805239140     0.998334350672     0.000095095807    12.000000000000
         C            0.472582760860    -0.103008649328    -0.000055904193    12.000000000000
         C           -1.783621239140     0.733274350672     0.000204095807    12.000000000000
         C           -0.020326239140    -1.415544649328    -0.000109904193    12.000000000000
         C            0.139429460860     2.619232950672     0.000176595807    12.000000000000
         C           -2.275692239140    -0.572673649328     0.000150095807    12.000000000000
         C           -1.390570239140    -1.653695649328    -0.000004904193    12.000000000000
         C            1.944667760860     0.076853350672    -0.000169904193    12.000000000000
         H           -2.482769239140     1.567623350672     0.000322095807     1.007825032230
         H            0.696970760860    -2.232308649328    -0.000227904193     1.007825032230
         H            0.679546760860     2.658260350672    -0.883231904193     1.007825032230
         H           -0.779708239140     3.110756350672     0.000219095807     1.007825032230
         H            0.679574760860     2.658155350672     0.883575095807     1.007825032230
         H           -3.349625239140    -0.744823649328     0.000234095807     1.007825032230
         H           -1.768950239140    -2.672839649328    -0.000048904193     1.007825032230
         H            2.317552760860     1.117825350672    -0.000176904193     1.007825032230

  Basis Set: AUG-CC-PVTZ
    Blend: AUG-CC-PVTZ
  Basis Set: (AUG-CC-PVTZ AUX)
    Blend: AUG-CC-PVTZ-JKFIT
	 Reference Energy          =    -382.5675261085606280 [Eh]
	 Singles Energy            =      -0.0000000000000000 [Eh]
	 Same-Spin Energy          =      -0.4081586635140821 [Eh]
	 Opposite-Spin Energy      =      -1.2878068968782732 [Eh]
	 Correlation Energy        =      -1.6959655603923554 [Eh]
	 Total Energy              =    -384.2634916689530087 [Eh]

	 ================> DF-SCS-MP2 Energies <==================
	-----------------------------------------------------------
	 SCS Same-Spin Scale       =       0.3333333333333333 [-]
	 SCS Opposite-Spin Scale   =       1.2000000000000000 [-]
	 SCS Same-Spin Energy      =      -0.1360528878380274 [Eh]
	 SCS Opposite-Spin Energy  =      -1.5453682762539278 [Eh]
	 SCS Correlation Energy    =      -1.6814211640919552 [Eh]
	 SCS Total Energy          =    -384.2489472726525719 [Eh]
	-----------------------------------------------------------

  Dipole Moment: [D]
     X:    -2.7471      Y:     1.8204      Z:     0.0003     Total:     3.2955

*** Psi4 exiting successfully. Buy a developer a beer!
