                               Psi4 1.4a3.dev225

  ==> Input File <==

--------------------------------------------------------------------------
#psi4
#
memory 32 gb

molecule  {
0 1
  O        2.7820080    -0.8809860    -0.0002600
  C       -0.3718440     0.9737870     0.0000910
  C        0.5095440    -0.1275560    -0.0000600
  C       -1.7466600     0.7087270     0.0002000
  C        0.0166350    -1.4400920    -0.0001140
  C        0.1123110     2.4052290     0.0001630
  C       -2.2387310    -0.5972210     0.0001460
  C       -1.3536090    -1.6782430    -0.0000090
  C        1.9816290     0.0523060    -0.0001740
  H       -2.4458080     1.5430760     0.0003180
  H        0.7999193    -2.3319937    -0.0002429
  H        0.7165080     2.6337130    -0.8832360
  H       -0.7427470     3.0862090     0.0002150
  H        0.7165360     2.6336080     0.8835710
  H       -3.3126640    -0.7693710     0.0002300
  H       -1.7319890    -2.6973870    -0.0000530
  H        2.3545140     1.0932780    -0.0001810
units angstrom
no_reorient  #important for SAPT in psi4, default
symmetry c1  #important for SAPT in psi4, default
}

set PROPERTIES_ORIGIN ["COM"]
properties('MP2/aug-cc-pvtz', properties = ['dipole'])
--------------------------------------------------------------------------

    Molecular point group: c1
  Charge       = 0
  Multiplicity = 1
  Basis Set: AUG-CC-PVTZ
    Blend: AUG-CC-PVTZ
  Basis Set: (AUG-CC-PVTZ AUX)
    Blend: AUG-CC-PVTZ-JKFIT

    Orbital Energies [Eh]
    ---------------------

    Doubly Occupied:

       1A    -20.551962     2A    -11.334885     3A    -11.270543
       4A    -11.262128     5A    -11.257924     6A    -11.249455
       7A    -11.245716     8A    -11.244814     9A    -11.244015
      10A     -1.376700    11A     -1.171841    12A     -1.065236
      13A     -1.037941    14A     -0.955078    15A     -0.888573
      16A     -0.817295    17A     -0.786734    18A     -0.707832
      19A     -0.670275    20A     -0.641316    21A     -0.617055
      22A     -0.604170    23A     -0.597734    24A     -0.582856
      25A     -0.558673    26A     -0.538423    27A     -0.517509
      28A     -0.496248    29A     -0.491697    30A     -0.425382
      31A     -0.349162    32A     -0.342935

  @DF-RHF Final Energy:  -382.58656066992330

   => Energetics <=

    Nuclear Repulsion Energy =            401.4900750203773896
    One-Electron Energy =               -1314.3490544365306505
    Two-Electron Energy =                 530.2724187462299597
    Total Energy =                       -382.5865606699233012
  Basis Set: (AUG-CC-PVTZ AUX)
    Blend: AUG-CC-PVTZ-RI
    Molecular point group: c1

    Geometry (in Angstrom), charge = 0, multiplicity = 1:

       Center              X                  Y                   Z               Mass
    ------------   -----------------  -----------------  -----------------  -----------------
         O            2.750897729439    -0.836871320641    -0.000254863148    15.994914619570
         C           -0.402954270561     1.017901679359     0.000096136852    12.000000000000
         C            0.478433729439    -0.083441320641    -0.000054863148    12.000000000000
         C           -1.777770270561     0.752841679359     0.000205136852    12.000000000000
         C           -0.014475270561    -1.395977320641    -0.000108863148    12.000000000000
         C            0.081200729439     2.449343679359     0.000168136852    12.000000000000
         C           -2.269841270561    -0.553106320641     0.000151136852    12.000000000000
         C           -1.384719270561    -1.634128320641    -0.000003863148    12.000000000000
         C            1.950518729439     0.096420679359    -0.000168863148    12.000000000000
         H           -2.476918270561     1.587190679359     0.000323136852     1.007825032230
         H            0.768809029439    -2.287879020641    -0.000237763148     1.007825032230
         H            0.685397729439     2.677827679359    -0.883230863148     1.007825032230
         H           -0.773857270561     3.130323679359     0.000220136852     1.007825032230
         H            0.685425729439     2.677722679359     0.883576136852     1.007825032230
         H           -3.343774270561    -0.725256320641     0.000235136852     1.007825032230
         H           -1.763099270561    -2.653272320641    -0.000047863148     1.007825032230
         H            2.323403729439     1.137392679359    -0.000175863148     1.007825032230

  Basis Set: AUG-CC-PVTZ
    Blend: AUG-CC-PVTZ
  Basis Set: (AUG-CC-PVTZ AUX)
    Blend: AUG-CC-PVTZ-JKFIT
	 Reference Energy          =    -382.5865606699233012 [Eh]
	 Singles Energy            =      -0.0000000000000000 [Eh]
	 Same-Spin Energy          =      -0.4088654365349134 [Eh]
	 Opposite-Spin Energy      =      -1.2880830108910992 [Eh]
	 Correlation Energy        =      -1.6969484474260126 [Eh]
	 Total Energy              =    -384.2835091173492970 [Eh]

	 ================> DF-SCS-MP2 Energies <==================
	-----------------------------------------------------------
	 SCS Same-Spin Scale       =       0.3333333333333333 [-]
	 SCS Opposite-Spin Scale   =       1.2000000000000000 [-]
	 SCS Same-Spin Energy      =      -0.1362884788449711 [Eh]
	 SCS Opposite-Spin Energy  =      -1.5456996130693190 [Eh]
	 SCS Correlation Energy    =      -1.6819880919142902 [Eh]
	 SCS Total Energy          =    -384.2685487618375646 [Eh]
	-----------------------------------------------------------

  Dipole Moment: [D]
     X:    -2.7055      Y:     1.8976      Z:     0.0003     Total:     3.3046

*** Psi4 exiting successfully. Buy a developer a beer!
