                               Psi4 1.4a3.dev225

  ==> Input File <==

--------------------------------------------------------------------------
#psi4
#
memory 32 gb

molecule  {
0 1
  O        2.7820080    -0.8809860    -0.0002600
  C       -0.3718440     0.9737870     0.0000910
  C        0.5095440    -0.1275560    -0.0000600
  C       -1.7466600     0.7087270     0.0002000
  C        0.0166350    -1.4400920    -0.0001140
  C        0.1123110     2.4052290     0.0001630
  C       -2.2387310    -0.5972210     0.0001460
  C       -1.3536090    -1.6782430    -0.0000090
  C        1.9816290     0.0523060    -0.0001740
  H       -2.4458080     1.5430760     0.0003180
  H        0.7207345    -2.2418285    -0.0002298
  H        0.7165080     2.6337130    -0.8832360
  H       -0.7427470     3.0862090     0.0002150
  H        0.7165360     2.6336080     0.8835710
  H       -3.3126640    -0.7693710     0.0002300
  H       -1.7319890    -2.6973870    -0.0000530
  H        2.3545140     1.0932780    -0.0001810
units angstrom
no_reorient  #important for SAPT in psi4, default
symmetry c1  #important for SAPT in psi4, default
}

set PROPERTIES_ORIGIN ["COM"]
properties('MP2/aug-cc-pvtz', properties = ['dipole'])
--------------------------------------------------------------------------

    Molecular point group: c1
  Charge       = 0
  Multiplicity = 1
  Basis Set: AUG-CC-PVTZ
    Blend: AUG-CC-PVTZ
  Basis Set: (AUG-CC-PVTZ AUX)
    Blend: AUG-CC-PVTZ-JKFIT

    Orbital Energies [Eh]
    ---------------------

    Doubly Occupied:

       1A    -20.552129     2A    -11.334876     3A    -11.270044
       4A    -11.257527     5A    -11.250299     6A    -11.248507
       7A    -11.245651     8A    -11.244264     9A    -11.243754
      10A     -1.376862    11A     -1.172054    12A     -1.065420
      13A     -1.040367    14A     -0.955330    15A     -0.890372
      16A     -0.822944    17A     -0.787201    18A     -0.708804
      19A     -0.674682    20A     -0.645901    21A     -0.618961
      22A     -0.610241    23A     -0.597508    24A     -0.585996
      25A     -0.558573    26A     -0.538423    27A     -0.519111
      28A     -0.503413    29A     -0.491508    30A     -0.425517
      31A     -0.348970    32A     -0.342711

  @DF-RHF Final Energy:  -382.59442965335097

   => Energetics <=

    Nuclear Repulsion Energy =            402.0511277294397132
    One-Electron Energy =               -1315.4352780115439145
    Two-Electron Energy =                 530.7897206287532299
    Total Energy =                       -382.5944296533509714
  Basis Set: (AUG-CC-PVTZ AUX)
    Blend: AUG-CC-PVTZ-RI
    Molecular point group: c1

    Geometry (in Angstrom), charge = 0, multiplicity = 1:

       Center              X                  Y                   Z               Mass
    ------------   -----------------  -----------------  -----------------  -----------------
         O            2.751562447709    -0.837628214082    -0.000254973116    15.994914619570
         C           -0.402289552291     1.017144785918     0.000096026884    12.000000000000
         C            0.479098447709    -0.084198214082    -0.000054973116    12.000000000000
         C           -1.777105552291     0.752084785918     0.000205026884    12.000000000000
         C           -0.013810552291    -1.396734214082    -0.000108973116    12.000000000000
         C            0.081865447709     2.448586785918     0.000168026884    12.000000000000
         C           -2.269176552291    -0.553863214082     0.000151026884    12.000000000000
         C           -1.384054552291    -1.634885214082    -0.000003973116    12.000000000000
         C            1.951183447709     0.095663785918    -0.000168973116    12.000000000000
         H           -2.476253552291     1.586433785918     0.000323026884     1.007825032230
         H            0.690288947709    -2.198470714082    -0.000224773116     1.007825032230
         H            0.686062447709     2.677070785918    -0.883230973116     1.007825032230
         H           -0.773192552291     3.129566785918     0.000220026884     1.007825032230
         H            0.686090447709     2.676965785918     0.883576026884     1.007825032230
         H           -3.343109552291    -0.726013214082     0.000235026884     1.007825032230
         H           -1.762434552291    -2.654029214082    -0.000047973116     1.007825032230
         H            2.324068447709     1.136635785918    -0.000175973116     1.007825032230

  Basis Set: AUG-CC-PVTZ
    Blend: AUG-CC-PVTZ
  Basis Set: (AUG-CC-PVTZ AUX)
    Blend: AUG-CC-PVTZ-JKFIT
	 Reference Energy          =    -382.5944296533509714 [Eh]
	 Singles Energy            =      -0.0000000000000000 [Eh]
	 Same-Spin Energy          =      -0.4083974043308601 [Eh]
	 Opposite-Spin Energy      =      -1.2868506427077819 [Eh]
	 Correlation Energy        =      -1.6952480470386422 [Eh]
	 Total Energy              =    -384.2896777003896318 [Eh]

	 ================> DF-SCS-MP2 Energies <==================
	-----------------------------------------------------------
	 SCS Same-Spin Scale       =       0.3333333333333333 [-]
	 SCS Opposite-Spin Scale   =       1.2000000000000000 [-]
	 SCS Same-Spin Energy      =      -0.1361324681102867 [Eh]
	 SCS Opposite-Spin Energy  =      -1.5442207712493383 [Eh]
	 SCS Correlation Energy    =      -1.6803532393596250 [Eh]
	 SCS Total Energy          =    -384.2747828927106184 [Eh]
	-----------------------------------------------------------

  Dipole Moment: [D]
     X:    -2.7192      Y:     1.8854      Z:     0.0003     Total:     3.3088

*** Psi4 exiting successfully. Buy a developer a beer!
