                               Psi4 1.4a3.dev225

  ==> Input File <==

--------------------------------------------------------------------------
#psi4
#
memory 32 gb

molecule  {
0 1
  O        2.7820080    -0.8809860    -0.0002600
  C       -0.3718440     0.9737870     0.0000910
  C        0.5041637    -0.0760714    -0.0000584
  C       -1.7466600     0.7087270     0.0002000
  C        0.0166350    -1.4400920    -0.0001140
  C        0.1123110     2.4052290     0.0001630
  C       -2.2387310    -0.5972210     0.0001460
  C       -1.3536090    -1.6782430    -0.0000090
  C        1.9816290     0.0523060    -0.0001740
  H       -2.4458080     1.5430760     0.0003180
  H        0.7339320    -2.2568560    -0.0002320
  H        0.7165080     2.6337130    -0.8832360
  H       -0.7427470     3.0862090     0.0002150
  H        0.7165360     2.6336080     0.8835710
  H       -3.3126640    -0.7693710     0.0002300
  H       -1.7319890    -2.6973870    -0.0000530
  H        2.3545140     1.0932780    -0.0001810
units angstrom
no_reorient  #important for SAPT in psi4, default
symmetry c1  #important for SAPT in psi4, default
}

set PROPERTIES_ORIGIN ["COM"]
properties('MP2/aug-cc-pvtz', properties = ['dipole'])
--------------------------------------------------------------------------

    Molecular point group: c1
  Charge       = 0
  Multiplicity = 1
  Basis Set: AUG-CC-PVTZ
    Blend: AUG-CC-PVTZ
  Basis Set: (AUG-CC-PVTZ AUX)
    Blend: AUG-CC-PVTZ-JKFIT

    Orbital Energies [Eh]
    ---------------------

    Doubly Occupied:

       1A    -20.553303     2A    -11.335638     3A    -11.266663
       4A    -11.258433     5A    -11.256618     6A    -11.248944
       7A    -11.246172     8A    -11.244379     9A    -11.242813
      10A     -1.377028    11A     -1.173715    12A     -1.069121
      13A     -1.034863    14A     -0.955821    15A     -0.890796
      16A     -0.825302    17A     -0.785869    18A     -0.706855
      19A     -0.676741    20A     -0.644566    21A     -0.616286
      22A     -0.609923    23A     -0.598456    24A     -0.586734
      25A     -0.556663    26A     -0.537942    27A     -0.520163
      28A     -0.502419    29A     -0.491690    30A     -0.424095
      31A     -0.351028    32A     -0.342302

  @DF-RHF Final Energy:  -382.59069374810474

   => Energetics <=

    Nuclear Repulsion Energy =            402.0015971315512502
    One-Electron Energy =               -1315.3219014517808318
    Two-Electron Energy =                 530.7296105721247841
    Total Energy =                       -382.5906937481047407
  Basis Set: (AUG-CC-PVTZ AUX)
    Blend: AUG-CC-PVTZ-RI
    Molecular point group: c1

    Geometry (in Angstrom), charge = 0, multiplicity = 1:

       Center              X                  Y                   Z               Mass
    ------------   -----------------  -----------------  -----------------  -----------------
         O            2.751989433302    -0.842648059029    -0.000255114572    15.994914619570
         C           -0.401862566698     1.012124940971     0.000095885428    12.000000000000
         C            0.474145133302    -0.037733459029    -0.000053514572    12.000000000000
         C           -1.776678566698     0.747064940971     0.000204885428    12.000000000000
         C           -0.013383566698    -1.401754059029    -0.000109114572    12.000000000000
         C            0.082292433302     2.443566940971     0.000167885428    12.000000000000
         C           -2.268749566698    -0.558883059029     0.000150885428    12.000000000000
         C           -1.383627566698    -1.639905059029    -0.000004114572    12.000000000000
         C            1.951610433302     0.090643940971    -0.000169114572    12.000000000000
         H           -2.475826566698     1.581413940971     0.000322885428     1.007825032230
         H            0.703913433302    -2.218518059029    -0.000227114572     1.007825032230
         H            0.686489433302     2.672050940971    -0.883231114572     1.007825032230
         H           -0.772765566698     3.124546940971     0.000219885428     1.007825032230
         H            0.686517433302     2.671945940971     0.883575885428     1.007825032230
         H           -3.342682566698    -0.731033059029     0.000234885428     1.007825032230
         H           -1.762007566698    -2.659049059029    -0.000048114572     1.007825032230
         H            2.324495433302     1.131615940971    -0.000176114572     1.007825032230

  Basis Set: AUG-CC-PVTZ
    Blend: AUG-CC-PVTZ
  Basis Set: (AUG-CC-PVTZ AUX)
    Blend: AUG-CC-PVTZ-JKFIT
	 Reference Energy          =    -382.5906937481047407 [Eh]
	 Singles Energy            =      -0.0000000000000000 [Eh]
	 Same-Spin Energy          =      -0.4084110820059590 [Eh]
	 Opposite-Spin Energy      =      -1.2872273156448135 [Eh]
	 Correlation Energy        =      -1.6956383976507725 [Eh]
	 Total Energy              =    -384.2863321457555230 [Eh]

	 ================> DF-SCS-MP2 Energies <==================
	-----------------------------------------------------------
	 SCS Same-Spin Scale       =       0.3333333333333333 [-]
	 SCS Opposite-Spin Scale   =       1.2000000000000000 [-]
	 SCS Same-Spin Energy      =      -0.1361370273353197 [Eh]
	 SCS Opposite-Spin Energy  =      -1.5446727787737762 [Eh]
	 SCS Correlation Energy    =      -1.6808098061090959 [Eh]
	 SCS Total Energy          =    -384.2715035542138367 [Eh]
	-----------------------------------------------------------

  Dipole Moment: [D]
     X:    -2.7546      Y:     1.8513      Z:     0.0003     Total:     3.3189

*** Psi4 exiting successfully. Buy a developer a beer!
