                               Psi4 1.4a3.dev225

  ==> Input File <==

--------------------------------------------------------------------------
#psi4
#
memory 32 gb

molecule  {
0 1
  O        2.7820080    -0.8809860    -0.0002600
  C       -0.3718440     0.9737870     0.0000910
  C        0.5095440    -0.1275560    -0.0000600
  C       -1.7466600     0.7087270     0.0002000
  C        0.0166350    -1.4400920    -0.0001140
  C        0.1123110     2.4052290     0.0001630
  C       -2.2387310    -0.5972210     0.0001460
  C       -1.3536090    -1.6782430    -0.0000090
  C        1.9816290     0.0523060    -0.0001740
  H       -2.4586535     1.5584055     0.0003202
  H        0.7339320    -2.2568560    -0.0002320
  H        0.7165080     2.6337130    -0.8832360
  H       -0.7427470     3.0862090     0.0002150
  H        0.7165360     2.6336080     0.8835710
  H       -3.3126640    -0.7693710     0.0002300
  H       -1.7319890    -2.6973870    -0.0000530
  H        2.3545140     1.0932780    -0.0001810
units angstrom
no_reorient  #important for SAPT in psi4, default
symmetry c1  #important for SAPT in psi4, default
}

set PROPERTIES_ORIGIN ["COM"]
properties('MP2/aug-cc-pvtz', properties = ['dipole'])
--------------------------------------------------------------------------

    Molecular point group: c1
  Charge       = 0
  Multiplicity = 1
  Basis Set: AUG-CC-PVTZ
    Blend: AUG-CC-PVTZ
  Basis Set: (AUG-CC-PVTZ AUX)
    Blend: AUG-CC-PVTZ-JKFIT

    Orbital Energies [Eh]
    ---------------------

    Doubly Occupied:

       1A    -20.552186     2A    -11.334968     3A    -11.270324
       4A    -11.257786     5A    -11.252359     6A    -11.248893
       7A    -11.247976     8A    -11.244497     9A    -11.243760
      10A     -1.376916    11A     -1.171995    12A     -1.065443
      13A     -1.039432    14A     -0.955094    15A     -0.889978
      16A     -0.821055    17A     -0.786481    18A     -0.708219
      19A     -0.673712    20A     -0.644481    21A     -0.617866
      22A     -0.608607    23A     -0.597548    24A     -0.585312
      25A     -0.557869    26A     -0.538498    27A     -0.518853
      28A     -0.501805    29A     -0.491654    30A     -0.425580
      31A     -0.349102    32A     -0.342860

  @DF-RHF Final Energy:  -382.59359138554362

   => Energetics <=

    Nuclear Repulsion Energy =            401.8521524371139435
    One-Electron Energy =               -1315.0492703208342391
    Two-Electron Energy =                 530.6035264981766204
    Total Energy =                       -382.5935913855436183
  Basis Set: (AUG-CC-PVTZ AUX)
    Blend: AUG-CC-PVTZ-RI
    Molecular point group: c1

    Geometry (in Angstrom), charge = 0, multiplicity = 1:

       Center              X                  Y                   Z               Mass
    ------------   -----------------  -----------------  -----------------  -----------------
         O            2.751559492839    -0.837630749227    -0.000254973116    15.994914619570
         C           -0.402292507161     1.017142250773     0.000096026884    12.000000000000
         C            0.479095492839    -0.084200749227    -0.000054973116    12.000000000000
         C           -1.777108507161     0.752082250773     0.000205026884    12.000000000000
         C           -0.013813507161    -1.396736749227    -0.000108973116    12.000000000000
         C            0.081862492839     2.448584250773     0.000168026884    12.000000000000
         C           -2.269179507161    -0.553865749227     0.000151026884    12.000000000000
         C           -1.384057507161    -1.634887749227    -0.000003973116    12.000000000000
         C            1.951180492839     0.095661250773    -0.000168973116    12.000000000000
         H           -2.489102007161     1.601760750773     0.000325226884     1.007825032230
         H            0.703483492839    -2.213500749227    -0.000226973116     1.007825032230
         H            0.686059492839     2.677068250773    -0.883230973116     1.007825032230
         H           -0.773195507161     3.129564250773     0.000220026884     1.007825032230
         H            0.686087492839     2.676963250773     0.883576026884     1.007825032230
         H           -3.343112507161    -0.726015749227     0.000235026884     1.007825032230
         H           -1.762437507161    -2.654031749227    -0.000047973116     1.007825032230
         H            2.324065492839     1.136633250773    -0.000175973116     1.007825032230

  Basis Set: AUG-CC-PVTZ
    Blend: AUG-CC-PVTZ
  Basis Set: (AUG-CC-PVTZ AUX)
    Blend: AUG-CC-PVTZ-JKFIT
	 Reference Energy          =    -382.5935913855436183 [Eh]
	 Singles Energy            =      -0.0000000000000000 [Eh]
	 Same-Spin Energy          =      -0.4085160523104452 [Eh]
	 Opposite-Spin Energy      =      -1.2871750467674363 [Eh]
	 Correlation Energy        =      -1.6956910990778815 [Eh]
	 Total Energy              =    -384.2892824846214808 [Eh]

	 ================> DF-SCS-MP2 Energies <==================
	-----------------------------------------------------------
	 SCS Same-Spin Scale       =       0.3333333333333333 [-]
	 SCS Opposite-Spin Scale   =       1.2000000000000000 [-]
	 SCS Same-Spin Energy      =      -0.1361720174368151 [Eh]
	 SCS Opposite-Spin Energy  =      -1.5446100561209235 [Eh]
	 SCS Correlation Energy    =      -1.6807820735577386 [Eh]
	 SCS Total Energy          =    -384.2743734591013549 [Eh]
	-----------------------------------------------------------

  Dipole Moment: [D]
     X:    -2.7107      Y:     1.8796      Z:     0.0003     Total:     3.2986

*** Psi4 exiting successfully. Buy a developer a beer!
