                               Psi4 1.4a3.dev225

  ==> Input File <==

--------------------------------------------------------------------------
#psi4
#
memory 32 gb

molecule  {
0 1
  O        2.7820080    -0.8809860    -0.0002600
  C       -0.3718440     0.9737870     0.0000910
  C        0.5095440    -0.1275560    -0.0000600
  C       -1.7466600     0.7087270     0.0002000
  C        0.0166350    -1.4400920    -0.0001140
  C        0.1123110     2.4052290     0.0001630
  C       -2.2387310    -0.5972210     0.0001460
  C       -1.3536090    -1.6782430    -0.0000090
  C        1.9816290     0.0523060    -0.0001740
  H       -2.4458080     1.5430760     0.0003180
  H        0.7339320    -2.2568560    -0.0002320
  H        0.7165080     2.6337130    -0.8832360
  H       -0.7427470     3.0862090     0.0002150
  H        0.7165360     2.6336080     0.8835710
  H       -3.3126640    -0.7693710     0.0002300
  H       -1.7319890    -2.6973870    -0.0000530
  H        2.3376527     1.0462068    -0.0001807
units angstrom
no_reorient  #important for SAPT in psi4, default
symmetry c1  #important for SAPT in psi4, default
}

set PROPERTIES_ORIGIN ["COM"]
properties('MP2/aug-cc-pvtz', properties = ['dipole'])
--------------------------------------------------------------------------

    Molecular point group: c1
  Charge       = 0
  Multiplicity = 1
  Basis Set: AUG-CC-PVTZ
    Blend: AUG-CC-PVTZ
  Basis Set: (AUG-CC-PVTZ AUX)
    Blend: AUG-CC-PVTZ-JKFIT

    Orbital Energies [Eh]
    ---------------------

    Doubly Occupied:

       1A    -20.551145     2A    -11.329130     3A    -11.269879
       4A    -11.257300     5A    -11.251774     6A    -11.247893
       7A    -11.245491     8A    -11.244088     9A    -11.244022
      10A     -1.376359    11A     -1.171736    12A     -1.065392
      13A     -1.039691    14A     -0.955393    15A     -0.893849
      16A     -0.821538    17A     -0.793062    18A     -0.711200
      19A     -0.674178    20A     -0.645236    21A     -0.620032
      22A     -0.609711    23A     -0.597693    24A     -0.585532
      25A     -0.558592    26A     -0.537903    27A     -0.518576
      28A     -0.502279    29A     -0.491133    30A     -0.427450
      31A     -0.348563    32A     -0.342545

  @DF-RHF Final Energy:  -382.59387908864630

   => Energetics <=

    Nuclear Repulsion Energy =            402.1892198609544948
    One-Electron Energy =               -1315.7094680129791868
    Two-Electron Energy =                 530.9263690633783881
    Total Energy =                       -382.5938790886463039
  Basis Set: (AUG-CC-PVTZ AUX)
    Blend: AUG-CC-PVTZ-RI
    Molecular point group: c1

    Geometry (in Angstrom), charge = 0, multiplicity = 1:

       Center              X                  Y                   Z               Mass
    ------------   -----------------  -----------------  -----------------  -----------------
         O            2.751593203546    -0.837106925395    -0.000254957167    15.994914619570
         C           -0.402258796454     1.017666074605     0.000096042833    12.000000000000
         C            0.479129203546    -0.083676925395    -0.000054957167    12.000000000000
         C           -1.777074796454     0.752606074605     0.000205042833    12.000000000000
         C           -0.013779796454    -1.396212925395    -0.000108957167    12.000000000000
         C            0.081896203546     2.449108074605     0.000168042833    12.000000000000
         C           -2.269145796454    -0.553341925395     0.000151042833    12.000000000000
         C           -1.384023796454    -1.634363925395    -0.000003957167    12.000000000000
         C            1.951214203546     0.096185074605    -0.000168957167    12.000000000000
         H           -2.476222796454     1.586955074605     0.000323042833     1.007825032230
         H            0.703517203546    -2.212976925395    -0.000226957167     1.007825032230
         H            0.686093203546     2.677592074605    -0.883230957167     1.007825032230
         H           -0.773161796454     3.130088074605     0.000220042833     1.007825032230
         H            0.686121203546     2.677487074605     0.883576042833     1.007825032230
         H           -3.343078796454    -0.725491925395     0.000235042833     1.007825032230
         H           -1.762403796454    -2.653507925395    -0.000047957167     1.007825032230
         H            2.307237903546     1.090085874605    -0.000175657167     1.007825032230

  Basis Set: AUG-CC-PVTZ
    Blend: AUG-CC-PVTZ
  Basis Set: (AUG-CC-PVTZ AUX)
    Blend: AUG-CC-PVTZ-JKFIT
	 Reference Energy          =    -382.5938790886463039 [Eh]
	 Singles Energy            =      -0.0000000000000000 [Eh]
	 Same-Spin Energy          =      -0.4082469505267412 [Eh]
	 Opposite-Spin Energy      =      -1.2865533741780406 [Eh]
	 Correlation Energy        =      -1.6948003247047818 [Eh]
	 Total Energy              =    -384.2886794133510762 [Eh]

	 ================> DF-SCS-MP2 Energies <==================
	-----------------------------------------------------------
	 SCS Same-Spin Scale       =       0.3333333333333333 [-]
	 SCS Opposite-Spin Scale   =       1.2000000000000000 [-]
	 SCS Same-Spin Energy      =      -0.1360823168422471 [Eh]
	 SCS Opposite-Spin Energy  =      -1.5438640490136486 [Eh]
	 SCS Correlation Energy    =      -1.6799463658558957 [Eh]
	 SCS Total Energy          =    -384.2738254545021732 [Eh]
	-----------------------------------------------------------

  Dipole Moment: [D]
     X:    -2.6967      Y:     1.9296      Z:     0.0003     Total:     3.3159

*** Psi4 exiting successfully. Buy a developer a beer!
