                               Psi4 1.4a3.dev225

  ==> Input File <==

--------------------------------------------------------------------------
#psi4
#
memory 32 gb

molecule  {
0 1
  O        2.7820080    -0.8809860    -0.0002600
  C       -0.3718440     0.9737870     0.0000910
  C        0.5095440    -0.1275560    -0.0000600
  C       -1.7466600     0.7087270     0.0002000
  C        0.0166350    -1.4400920    -0.0001140
  C        0.1123110     2.4052290     0.0001630
  C       -2.2387310    -0.5972210     0.0001460
  C       -1.3733136    -1.6816677    -0.0000075
  C        1.9816290     0.0523060    -0.0001740
  H       -2.4458080     1.5430760     0.0003180
  H        0.7339320    -2.2568560    -0.0002320
  H        0.7165080     2.6337130    -0.8832360
  H       -0.7427470     3.0862090     0.0002150
  H        0.7165360     2.6336080     0.8835710
  H       -3.3126640    -0.7693710     0.0002300
  H       -1.7319890    -2.6973870    -0.0000530
  H        2.3545140     1.0932780    -0.0001810
units angstrom
no_reorient  #important for SAPT in psi4, default
symmetry c1  #important for SAPT in psi4, default
}

set PROPERTIES_ORIGIN ["COM"]
properties('MP2/aug-cc-pvtz', properties = ['dipole'])
--------------------------------------------------------------------------

    Molecular point group: c1
  Charge       = 0
  Multiplicity = 1
  Basis Set: AUG-CC-PVTZ
    Blend: AUG-CC-PVTZ
  Basis Set: (AUG-CC-PVTZ AUX)
    Blend: AUG-CC-PVTZ-JKFIT

    Orbital Energies [Eh]
    ---------------------

    Doubly Occupied:

       1A    -20.552200     2A    -11.335070     3A    -11.269898
       4A    -11.256318     5A    -11.255060     6A    -11.248923
       7A    -11.245413     8A    -11.244801     9A    -11.243710
      10A     -1.376946    11A     -1.171171    12A     -1.065333
      13A     -1.039201    14A     -0.954717    15A     -0.889995
      16A     -0.822709    17A     -0.786675    18A     -0.708959
      19A     -0.673429    20A     -0.645416    21A     -0.618614
      22A     -0.610599    23A     -0.597417    24A     -0.585196
      25A     -0.558321    26A     -0.538275    27A     -0.516377
      28A     -0.505145    29A     -0.491148    30A     -0.425585
      31A     -0.349707    32A     -0.341250

  @DF-RHF Final Energy:  -382.59371087340895

   => Energetics <=

    Nuclear Repulsion Energy =            401.7292307243063192
    One-Electron Energy =               -1314.7987237419538360
    Two-Electron Energy =                 530.4757821442386785
    Total Energy =                       -382.5937108734088952
  Basis Set: (AUG-CC-PVTZ AUX)
    Blend: AUG-CC-PVTZ-RI
    Molecular point group: c1

    Geometry (in Angstrom), charge = 0, multiplicity = 1:

       Center              X                  Y                   Z               Mass
    ------------   -----------------  -----------------  -----------------  -----------------
         O            2.753421177080    -0.837159759519    -0.000255104576    15.994914619570
         C           -0.400430822920     1.017613240481     0.000095895424    12.000000000000
         C            0.480957177080    -0.083729759519    -0.000055104576    12.000000000000
         C           -1.775246822920     0.752553240481     0.000204895424    12.000000000000
         C           -0.011951822920    -1.396265759519    -0.000109104576    12.000000000000
         C            0.083724177080     2.449055240481     0.000167895424    12.000000000000
         C           -2.267317822920    -0.553394759519     0.000150895424    12.000000000000
         C           -1.401900422920    -1.637841459519    -0.000002604576    12.000000000000
         C            1.953042177080     0.096132240481    -0.000169104576    12.000000000000
         H           -2.474394822920     1.586902240481     0.000322895424     1.007825032230
         H            0.705345177080    -2.213029759519    -0.000227104576     1.007825032230
         H            0.687921177080     2.677539240481    -0.883231104576     1.007825032230
         H           -0.771333822920     3.130035240481     0.000219895424     1.007825032230
         H            0.687949177080     2.677434240481     0.883575895424     1.007825032230
         H           -3.341250822920    -0.725544759519     0.000234895424     1.007825032230
         H           -1.760575822920    -2.653560759519    -0.000048104576     1.007825032230
         H            2.325927177080     1.137104240481    -0.000176104576     1.007825032230

  Basis Set: AUG-CC-PVTZ
    Blend: AUG-CC-PVTZ
  Basis Set: (AUG-CC-PVTZ AUX)
    Blend: AUG-CC-PVTZ-JKFIT
	 Reference Energy          =    -382.5937108734089520 [Eh]
	 Singles Energy            =      -0.0000000000000000 [Eh]
	 Same-Spin Energy          =      -0.4084304339218758 [Eh]
	 Opposite-Spin Energy      =      -1.2870435199108545 [Eh]
	 Correlation Energy        =      -1.6954739538327304 [Eh]
	 Total Energy              =    -384.2891848272416837 [Eh]

	 ================> DF-SCS-MP2 Energies <==================
	-----------------------------------------------------------
	 SCS Same-Spin Scale       =       0.3333333333333333 [-]
	 SCS Opposite-Spin Scale   =       1.2000000000000000 [-]
	 SCS Same-Spin Energy      =      -0.1361434779739586 [Eh]
	 SCS Opposite-Spin Energy  =      -1.5444522238930254 [Eh]
	 SCS Correlation Energy    =      -1.6805957018669839 [Eh]
	 SCS Total Energy          =    -384.2743065752759435 [Eh]
	-----------------------------------------------------------

  Dipole Moment: [D]
     X:    -2.7061      Y:     1.8743      Z:     0.0003     Total:     3.2918

*** Psi4 exiting successfully. Buy a developer a beer!
