                               Psi4 1.4a3.dev225

  ==> Input File <==

--------------------------------------------------------------------------
#psi4
#
memory 32 gb

molecule  {
0 1
  O        2.7820080    -0.8809860    -0.0002600
  C       -0.3718440     0.9737870     0.0000910
  C        0.5095440    -0.1275560    -0.0000600
  C       -1.7550730     0.7568689     0.0002048
  C        0.0166350    -1.4400920    -0.0001140
  C        0.1123110     2.4052290     0.0001630
  C       -2.2387310    -0.5972210     0.0001460
  C       -1.3536090    -1.6782430    -0.0000090
  C        1.9816290     0.0523060    -0.0001740
  H       -2.4458080     1.5430760     0.0003180
  H        0.7339320    -2.2568560    -0.0002320
  H        0.7165080     2.6337130    -0.8832360
  H       -0.7427470     3.0862090     0.0002150
  H        0.7165360     2.6336080     0.8835710
  H       -3.3126640    -0.7693710     0.0002300
  H       -1.7319890    -2.6973870    -0.0000530
  H        2.3545140     1.0932780    -0.0001810
units angstrom
no_reorient  #important for SAPT in psi4, default
symmetry c1  #important for SAPT in psi4, default
}

set PROPERTIES_ORIGIN ["COM"]
properties('MP2/aug-cc-pvtz', properties = ['dipole'])
--------------------------------------------------------------------------

    Molecular point group: c1
  Charge       = 0
  Multiplicity = 1
  Basis Set: AUG-CC-PVTZ
    Blend: AUG-CC-PVTZ
  Basis Set: (AUG-CC-PVTZ AUX)
    Blend: AUG-CC-PVTZ-JKFIT

    Orbital Energies [Eh]
    ---------------------

    Doubly Occupied:

       1A    -20.551619     2A    -11.334972     3A    -11.270197
       4A    -11.262830     5A    -11.254254     6A    -11.248805
       7A    -11.246410     8A    -11.244829     9A    -11.242237
      10A     -1.376538    11A     -1.168986    12A     -1.064909
      13A     -1.037753    14A     -0.953738    15A     -0.889849
      16A     -0.822365    17A     -0.789055    18A     -0.707434
      19A     -0.673289    20A     -0.648484    21A     -0.618288
      22A     -0.611843    23A     -0.596562    24A     -0.586593
      25A     -0.559615    26A     -0.537952    27A     -0.517885
      28A     -0.502167    29A     -0.488778    30A     -0.425413
      31A     -0.345207    32A     -0.344460

  @DF-RHF Final Energy:  -382.59092998609975

   => Energetics <=

    Nuclear Repulsion Energy =            401.3487995294154302
    One-Electron Energy =               -1314.0328306651754247
    Two-Electron Energy =                 530.0931011496603560
    Total Energy =                       -382.5909299860996953
  Basis Set: (AUG-CC-PVTZ AUX)
    Blend: AUG-CC-PVTZ-RI
    Molecular point group: c1

    Geometry (in Angstrom), charge = 0, multiplicity = 1:

       Center              X                  Y                   Z               Mass
    ------------   -----------------  -----------------  -----------------  -----------------
         O            2.752292558017    -0.842313949164    -0.000255434418    15.994914619570
         C           -0.401559441983     1.012459050836     0.000095565582    12.000000000000
         C            0.479828558017    -0.088883949164    -0.000055434418    12.000000000000
         C           -1.784788441983     0.795540950836     0.000209365582    12.000000000000
         C           -0.013080441983    -1.401419949164    -0.000109434418    12.000000000000
         C            0.082595558017     2.443901050836     0.000167565582    12.000000000000
         C           -2.268446441983    -0.558548949164     0.000150565582    12.000000000000
         C           -1.383324441983    -1.639570949164    -0.000004434418    12.000000000000
         C            1.951913558017     0.090978050836    -0.000169434418    12.000000000000
         H           -2.475523441983     1.581748050836     0.000322565582     1.007825032230
         H            0.704216558017    -2.218183949164    -0.000227434418     1.007825032230
         H            0.686792558017     2.672385050836    -0.883231434418     1.007825032230
         H           -0.772462441983     3.124881050836     0.000219565582     1.007825032230
         H            0.686820558017     2.672280050836     0.883575565582     1.007825032230
         H           -3.342379441983    -0.730698949164     0.000234565582     1.007825032230
         H           -1.761704441983    -2.658714949164    -0.000048434418     1.007825032230
         H            2.324798558017     1.131950050836    -0.000176434418     1.007825032230

  Basis Set: AUG-CC-PVTZ
    Blend: AUG-CC-PVTZ
  Basis Set: (AUG-CC-PVTZ AUX)
    Blend: AUG-CC-PVTZ-JKFIT
	 Reference Energy          =    -382.5909299860997521 [Eh]
	 Singles Energy            =      -0.0000000000000000 [Eh]
	 Same-Spin Energy          =      -0.4083556181892580 [Eh]
	 Opposite-Spin Energy      =      -1.2872480138202433 [Eh]
	 Correlation Energy        =      -1.6956036320095014 [Eh]
	 Total Energy              =    -384.2865336181092744 [Eh]

	 ================> DF-SCS-MP2 Energies <==================
	-----------------------------------------------------------
	 SCS Same-Spin Scale       =       0.3333333333333333 [-]
	 SCS Opposite-Spin Scale   =       1.2000000000000000 [-]
	 SCS Same-Spin Energy      =      -0.1361185393964193 [Eh]
	 SCS Opposite-Spin Energy  =      -1.5446976165842921 [Eh]
	 SCS Correlation Energy    =      -1.6808161559807113 [Eh]
	 SCS Total Energy          =    -384.2717461420804739 [Eh]
	-----------------------------------------------------------

  Dipole Moment: [D]
     X:    -2.7378      Y:     1.8759      Z:     0.0003     Total:     3.3188

*** Psi4 exiting successfully. Buy a developer a beer!
