                               Psi4 1.4a3.dev225

  ==> Input File <==

--------------------------------------------------------------------------
#psi4
#
memory 32 gb

molecule  {
0 1
  O        2.7820080    -0.8809860    -0.0002600
  C       -0.3718440     0.9737870     0.0000910
  C        0.5095440    -0.1275560    -0.0000600
  C       -1.7466600     0.7087270     0.0002000
  C        0.0166350    -1.4400920    -0.0001140
  C        0.1123110     2.4052290     0.0001630
  C       -2.2387310    -0.5972210     0.0001460
  C       -1.3536090    -1.6782430    -0.0000090
  C        1.9816290     0.0523060    -0.0001740
  H       -2.4458080     1.5430760     0.0003180
  H        0.7339320    -2.2568560    -0.0002320
  H        0.7165080     2.6337130    -0.8832360
  H       -0.7427470     3.0862090     0.0002150
  H        0.7165360     2.6336080     0.8835710
  H       -3.3324119    -0.7725366     0.0002315
  H       -1.7319890    -2.6973870    -0.0000530
  H        2.3545140     1.0932780    -0.0001810
units angstrom
no_reorient  #important for SAPT in psi4, default
symmetry c1  #important for SAPT in psi4, default
}

set PROPERTIES_ORIGIN ["COM"]
properties('MP2/aug-cc-pvtz', properties = ['dipole'])
--------------------------------------------------------------------------

    Molecular point group: c1
  Charge       = 0
  Multiplicity = 1
  Basis Set: AUG-CC-PVTZ
    Blend: AUG-CC-PVTZ
  Basis Set: (AUG-CC-PVTZ AUX)
    Blend: AUG-CC-PVTZ-JKFIT

    Orbital Energies [Eh]
    ---------------------

    Doubly Occupied:

       1A    -20.552151     2A    -11.334929     3A    -11.270248
       4A    -11.259875     5A    -11.252403     6A    -11.248802
       7A    -11.245827     8A    -11.244530     9A    -11.243868
      10A     -1.376886    11A     -1.172011    12A     -1.065212
      13A     -1.039627    14A     -0.955360    15A     -0.889181
      16A     -0.821786    17A     -0.786494    18A     -0.708199
      19A     -0.672929    20A     -0.643389    21A     -0.618488
      22A     -0.609179    23A     -0.597614    24A     -0.585725
      25A     -0.558464    26A     -0.538487    27A     -0.517434
      28A     -0.502616    29A     -0.491640    30A     -0.425542
      31A     -0.349076    32A     -0.342850

  @DF-RHF Final Energy:  -382.59360414437401

   => Energetics <=

    Nuclear Repulsion Energy =            401.8524454848944742
    One-Electron Energy =               -1315.0504563349227283
    Two-Electron Energy =                 530.6044067056542417
    Total Energy =                       -382.5936041443740123
  Basis Set: (AUG-CC-PVTZ AUX)
    Blend: AUG-CC-PVTZ-RI
    Molecular point group: c1

    Geometry (in Angstrom), charge = 0, multiplicity = 1:

       Center              X                  Y                   Z               Mass
    ------------   -----------------  -----------------  -----------------  -----------------
         O            2.751617435163    -0.837475491767    -0.000254967240    15.994914619570
         C           -0.402234564837     1.017297508233     0.000096032760    12.000000000000
         C            0.479153435163    -0.084045491767    -0.000054967240    12.000000000000
         C           -1.777050564837     0.752237508233     0.000205032760    12.000000000000
         C           -0.013755564837    -1.396581491767    -0.000108967240    12.000000000000
         C            0.081920435163     2.448739508233     0.000168032760    12.000000000000
         C           -2.269121564837    -0.553710491767     0.000151032760    12.000000000000
         C           -1.383999564837    -1.634732491767    -0.000003967240    12.000000000000
         C            1.951238435163     0.095816508233    -0.000168967240    12.000000000000
         H           -2.476198564837     1.586586508233     0.000323032760     1.007825032230
         H            0.703541435163    -2.213345491767    -0.000226967240     1.007825032230
         H            0.686117435163     2.677223508233    -0.883230967240     1.007825032230
         H           -0.773137564837     3.129719508233     0.000220032760     1.007825032230
         H            0.686145435163     2.677118508233     0.883576032760     1.007825032230
         H           -3.362802464837    -0.729026091767     0.000236532760     1.007825032230
         H           -1.762379564837    -2.653876491767    -0.000047967240     1.007825032230
         H            2.324123435163     1.136788508233    -0.000175967240     1.007825032230

  Basis Set: AUG-CC-PVTZ
    Blend: AUG-CC-PVTZ
  Basis Set: (AUG-CC-PVTZ AUX)
    Blend: AUG-CC-PVTZ-JKFIT
	 Reference Energy          =    -382.5936041443740123 [Eh]
	 Singles Energy            =      -0.0000000000000000 [Eh]
	 Same-Spin Energy          =      -0.4085054034438241 [Eh]
	 Opposite-Spin Energy      =      -1.2871739855561408 [Eh]
	 Correlation Energy        =      -1.6956793889999648 [Eh]
	 Total Energy              =    -384.2892835333739754 [Eh]

	 ================> DF-SCS-MP2 Energies <==================
	-----------------------------------------------------------
	 SCS Same-Spin Scale       =       0.3333333333333333 [-]
	 SCS Opposite-Spin Scale   =       1.2000000000000000 [-]
	 SCS Same-Spin Energy      =      -0.1361684678146080 [Eh]
	 SCS Opposite-Spin Energy  =      -1.5446087826673689 [Eh]
	 SCS Correlation Energy    =      -1.6807772504819769 [Eh]
	 SCS Total Energy          =    -384.2743813948559932 [Eh]
	-----------------------------------------------------------

  Dipole Moment: [D]
     X:    -2.7090      Y:     1.8883      Z:     0.0003     Total:     3.3022

*** Psi4 exiting successfully. Buy a developer a beer!
