                               Psi4 1.4a3.dev225

  ==> Input File <==

--------------------------------------------------------------------------
#psi4
#
memory 32 gb

molecule  {
0 1
  O        2.7820080    -0.8809860    -0.0002600
  C       -0.3718440     0.9737870     0.0000910
  C        0.5095440    -0.1275560    -0.0000600
  C       -1.7466600     0.7087270     0.0002000
  C        0.0166350    -1.4400920    -0.0001140
  C        0.1123110     2.4052290     0.0001630
  C       -2.2387310    -0.5972210     0.0001460
  C       -1.3536090    -1.6782430    -0.0000090
  C        1.9816290     0.0523060    -0.0001740
  H       -2.5100353     1.6197236     0.0003288
  H        0.7339320    -2.2568560    -0.0002320
  H        0.7165080     2.6337130    -0.8832360
  H       -0.7427470     3.0862090     0.0002150
  H        0.7165360     2.6336080     0.8835710
  H       -3.3126640    -0.7693710     0.0002300
  H       -1.7319890    -2.6973870    -0.0000530
  H        2.3545140     1.0932780    -0.0001810
units angstrom
no_reorient  #important for SAPT in psi4, default
symmetry c1  #important for SAPT in psi4, default
}

set PROPERTIES_ORIGIN ["COM"]
properties('MP2/aug-cc-pvtz', properties = ['dipole'])
--------------------------------------------------------------------------

    Molecular point group: c1
  Charge       = 0
  Multiplicity = 1
  Basis Set: AUG-CC-PVTZ
    Blend: AUG-CC-PVTZ
  Basis Set: (AUG-CC-PVTZ AUX)
    Blend: AUG-CC-PVTZ-JKFIT

    Orbital Energies [Eh]
    ---------------------

    Doubly Occupied:

       1A    -20.552573     2A    -11.335389     3A    -11.271266
       4A    -11.258842     5A    -11.256799     6A    -11.252796
       7A    -11.249609     8A    -11.245167     9A    -11.243645
      10A     -1.377283    11A     -1.172207    12A     -1.065868
      13A     -1.038101    14A     -0.954617    15A     -0.890115
      16A     -0.818800    17A     -0.784214    18A     -0.707045
      19A     -0.673869    20A     -0.643227    21A     -0.616500
      22A     -0.604832    23A     -0.597611    24A     -0.583676
      25A     -0.554481    26A     -0.538851    27A     -0.519237
      28A     -0.498231    29A     -0.492218    30A     -0.425930
      31A     -0.349646    32A     -0.343426

  @DF-RHF Final Energy:  -382.58683442751072

   => Energetics <=

    Nuclear Repulsion Energy =            401.4729594320002093
    One-Electron Energy =               -1314.2874459000654497
    Two-Electron Energy =                 530.2276520405546307
    Total Energy =                       -382.5868344275106665
  Basis Set: (AUG-CC-PVTZ AUX)
    Blend: AUG-CC-PVTZ-RI
    Molecular point group: c1

    Geometry (in Angstrom), charge = 0, multiplicity = 1:

       Center              X                  Y                   Z               Mass
    ------------   -----------------  -----------------  -----------------  -----------------
         O            2.751990818310    -0.838145485153    -0.000255045309    15.994914619570
         C           -0.401861181690     1.016627514847     0.000095954691    12.000000000000
         C            0.479526818310    -0.084715485153    -0.000055045309    12.000000000000
         C           -1.776677181690     0.751567514847     0.000204954691    12.000000000000
         C           -0.013382181690    -1.397251485153    -0.000109045309    12.000000000000
         C            0.082293818310     2.448069514847     0.000167954691    12.000000000000
         C           -2.268748181690    -0.554380485153     0.000150954691    12.000000000000
         C           -1.383626181690    -1.635402485153    -0.000004045309    12.000000000000
         C            1.951611818310     0.095146514847    -0.000169045309    12.000000000000
         H           -2.540052481690     1.662564114847     0.000333754691     1.007825032230
         H            0.703914818310    -2.214015485153    -0.000227045309     1.007825032230
         H            0.686490818310     2.676553514847    -0.883231045309     1.007825032230
         H           -0.772764181690     3.129049514847     0.000219954691     1.007825032230
         H            0.686518818310     2.676448514847     0.883575954691     1.007825032230
         H           -3.342681181690    -0.726530485153     0.000234954691     1.007825032230
         H           -1.762006181690    -2.654546485153    -0.000048045309     1.007825032230
         H            2.324496818310     1.136118514847    -0.000176045309     1.007825032230

  Basis Set: AUG-CC-PVTZ
    Blend: AUG-CC-PVTZ
  Basis Set: (AUG-CC-PVTZ AUX)
    Blend: AUG-CC-PVTZ-JKFIT
	 Reference Energy          =    -382.5868344275107233 [Eh]
	 Singles Energy            =      -0.0000000000000000 [Eh]
	 Same-Spin Energy          =      -0.4087399274542819 [Eh]
	 Opposite-Spin Energy      =      -1.2879704098806681 [Eh]
	 Correlation Energy        =      -1.6967103373349501 [Eh]
	 Total Energy              =    -384.2835447648456579 [Eh]

	 ================> DF-SCS-MP2 Energies <==================
	-----------------------------------------------------------
	 SCS Same-Spin Scale       =       0.3333333333333333 [-]
	 SCS Opposite-Spin Scale   =       1.2000000000000000 [-]
	 SCS Same-Spin Energy      =      -0.1362466424847606 [Eh]
	 SCS Opposite-Spin Energy  =      -1.5455644918568017 [Eh]
	 SCS Correlation Energy    =      -1.6818111343415623 [Eh]
	 SCS Total Energy          =    -384.2686455618522814 [Eh]
	-----------------------------------------------------------

  Dipole Moment: [D]
     X:    -2.6828      Y:     1.8479      Z:     0.0003     Total:     3.2577

*** Psi4 exiting successfully. Buy a developer a beer!
