                               Psi4 1.4a3.dev225

  ==> Input File <==

--------------------------------------------------------------------------
#psi4
#
memory 32 gb

molecule  {
0 1
  O        2.7820080    -0.8809860    -0.0002600
  C       -0.3718440     0.9737870     0.0000910
  C        0.5066292    -0.1018372    -0.0000592
  C       -1.7466600     0.7087270     0.0002000
  C        0.0166350    -1.4400920    -0.0001140
  C        0.1123110     2.4052290     0.0001630
  C       -2.2387310    -0.5972210     0.0001460
  C       -1.3536090    -1.6782430    -0.0000090
  C        1.9816290     0.0523060    -0.0001740
  H       -2.4458080     1.5430760     0.0003180
  H        0.7339320    -2.2568560    -0.0002320
  H        0.7165080     2.6337130    -0.8832360
  H       -0.7427470     3.0862090     0.0002150
  H        0.7165360     2.6336080     0.8835710
  H       -3.3126640    -0.7693710     0.0002300
  H       -1.7319890    -2.6973870    -0.0000530
  H        2.3545140     1.0932780    -0.0001810
units angstrom
no_reorient  #important for SAPT in psi4, default
symmetry c1  #important for SAPT in psi4, default
}

set PROPERTIES_ORIGIN ["COM"]
properties('MP2/aug-cc-pvtz', properties = ['dipole'])
--------------------------------------------------------------------------

    Molecular point group: c1
  Charge       = 0
  Multiplicity = 1
  Basis Set: AUG-CC-PVTZ
    Blend: AUG-CC-PVTZ
  Basis Set: (AUG-CC-PVTZ AUX)
    Blend: AUG-CC-PVTZ-JKFIT

    Orbital Energies [Eh]
    ---------------------

    Doubly Occupied:

       1A    -20.552637     2A    -11.335190     3A    -11.268465
       4A    -11.258019     5A    -11.254526     6A    -11.248894
       7A    -11.245932     8A    -11.244383     9A    -11.243316
      10A     -1.376872    11A     -1.172766    12A     -1.067196
      13A     -1.037352    14A     -0.955571    15A     -0.890355
      16A     -0.823357    17A     -0.786684    18A     -0.707697
      19A     -0.675231    20A     -0.644667    21A     -0.616952
      22A     -0.610127    23A     -0.597978    24A     -0.586222
      25A     -0.557652    26A     -0.538129    27A     -0.519221
      28A     -0.502978    29A     -0.491598    30A     -0.424882
      31A     -0.348520    32A     -0.343883

  @DF-RHF Final Energy:  -382.59332041637418

   => Energetics <=

    Nuclear Repulsion Energy =            401.9739933740758033
    One-Electron Energy =               -1315.2801238350857602
    Two-Electron Energy =                 530.7128100446358303
    Total Energy =                       -382.5933204163741266
  Basis Set: (AUG-CC-PVTZ AUX)
    Blend: AUG-CC-PVTZ-RI
    Molecular point group: c1

    Geometry (in Angstrom), charge = 0, multiplicity = 1:

       Center              X                  Y                   Z               Mass
    ------------   -----------------  -----------------  -----------------  -----------------
         O            2.751743001414    -0.840072713368    -0.000255034610    15.994914619570
         C           -0.402108998586     1.014700286632     0.000095965390    12.000000000000
         C            0.476364201414    -0.060923913368    -0.000054234610    12.000000000000
         C           -1.776924998586     0.749640286632     0.000204965390    12.000000000000
         C           -0.013629998586    -1.399178713368    -0.000109034610    12.000000000000
         C            0.082046001414     2.446142286632     0.000167965390    12.000000000000
         C           -2.268995998586    -0.556307713368     0.000150965390    12.000000000000
         C           -1.383873998586    -1.637329713368    -0.000004034610    12.000000000000
         C            1.951364001414     0.093219286632    -0.000169034610    12.000000000000
         H           -2.476072998586     1.583989286632     0.000322965390     1.007825032230
         H            0.703667001414    -2.215942713368    -0.000227034610     1.007825032230
         H            0.686243001414     2.674626286632    -0.883231034610     1.007825032230
         H           -0.773011998586     3.127122286632     0.000219965390     1.007825032230
         H            0.686271001414     2.674521286632     0.883575965390     1.007825032230
         H           -3.342928998586    -0.728457713368     0.000234965390     1.007825032230
         H           -1.762253998586    -2.656473713368    -0.000048034610     1.007825032230
         H            2.324249001414     1.134191286632    -0.000176034610     1.007825032230

  Basis Set: AUG-CC-PVTZ
    Blend: AUG-CC-PVTZ
  Basis Set: (AUG-CC-PVTZ AUX)
    Blend: AUG-CC-PVTZ-JKFIT
	 Reference Energy          =    -382.5933204163741834 [Eh]
	 Singles Energy            =      -0.0000000000000000 [Eh]
	 Same-Spin Energy          =      -0.4084491064255584 [Eh]
	 Opposite-Spin Energy      =      -1.2870835993619520 [Eh]
	 Correlation Energy        =      -1.6955327057875105 [Eh]
	 Total Energy              =    -384.2888531221616972 [Eh]

	 ================> DF-SCS-MP2 Energies <==================
	-----------------------------------------------------------
	 SCS Same-Spin Scale       =       0.3333333333333333 [-]
	 SCS Opposite-Spin Scale   =       1.2000000000000000 [-]
	 SCS Same-Spin Energy      =      -0.1361497021418528 [Eh]
	 SCS Opposite-Spin Energy  =      -1.5445003192343425 [Eh]
	 SCS Correlation Energy    =      -1.6806500213761952 [Eh]
	 SCS Total Energy          =    -384.2739704377503926 [Eh]
	-----------------------------------------------------------

  Dipole Moment: [D]
     X:    -2.7366      Y:     1.8690      Z:     0.0003     Total:     3.3139

*** Psi4 exiting successfully. Buy a developer a beer!
