                               Psi4 1.4a3.dev225

  ==> Input File <==

--------------------------------------------------------------------------
#psi4
#
memory 32 gb

molecule  {
0 1
  O        2.7820080    -0.8809860    -0.0002600
  C       -0.3718440     0.9737870     0.0000910
  C        0.5095440    -0.1275560    -0.0000600
  C       -1.7466600     0.7087270     0.0002000
  C        0.0166350    -1.4400920    -0.0001140
  C        0.1123110     2.4052290     0.0001630
  C       -2.2387310    -0.5972210     0.0001460
  C       -1.3536090    -1.6782430    -0.0000090
  C        1.9816290     0.0523060    -0.0001740
  H       -2.4458080     1.5430760     0.0003180
  H        0.7339320    -2.2568560    -0.0002320
  H        0.7165080     2.6337130    -0.8832360
  H       -0.7427470     3.0862090     0.0002150
  H        0.7165360     2.6336080     0.8835710
  H       -3.3620337    -0.7772849     0.0002339
  H       -1.7319890    -2.6973870    -0.0000530
  H        2.3545140     1.0932780    -0.0001810
units angstrom
no_reorient  #important for SAPT in psi4, default
symmetry c1  #important for SAPT in psi4, default
}

set PROPERTIES_ORIGIN ["COM"]
properties('MP2/aug-cc-pvtz', properties = ['dipole'])
--------------------------------------------------------------------------

    Molecular point group: c1
  Charge       = 0
  Multiplicity = 1
  Basis Set: AUG-CC-PVTZ
    Blend: AUG-CC-PVTZ
  Basis Set: (AUG-CC-PVTZ AUX)
    Blend: AUG-CC-PVTZ-JKFIT

    Orbital Energies [Eh]
    ---------------------

    Doubly Occupied:

       1A    -20.552239     2A    -11.335020     3A    -11.270454
       4A    -11.263253     5A    -11.252615     6A    -11.248923
       7A    -11.246112     8A    -11.244824     9A    -11.243991
      10A     -1.376974    11A     -1.172078    12A     -1.065057
      13A     -1.039307    14A     -0.955515    15A     -0.888108
      16A     -0.821762    17A     -0.785664    18A     -0.707711
      19A     -0.671964    20A     -0.640990    21A     -0.618451
      22A     -0.608760    23A     -0.597735    24A     -0.585865
      25A     -0.558292    26A     -0.538597    27A     -0.515264
      28A     -0.502792    29A     -0.491818    30A     -0.425612
      31A     -0.349224    32A     -0.343029

  @DF-RHF Final Energy:  -382.59177898850834

   => Energetics <=

    Nuclear Repulsion Energy =            401.7069689763191604
    One-Electron Energy =               -1314.7615028392701788
    Two-Electron Energy =                 530.4627548744427941
    Total Energy =                       -382.5917789885082811
  Basis Set: (AUG-CC-PVTZ AUX)
    Blend: AUG-CC-PVTZ-RI
    Molecular point group: c1

    Geometry (in Angstrom), charge = 0, multiplicity = 1:

       Center              X                  Y                   Z               Mass
    ------------   -----------------  -----------------  -----------------  -----------------
         O            2.751866095912    -0.837435632075    -0.000254987387    15.994914619570
         C           -0.401985904088     1.017337367925     0.000096012613    12.000000000000
         C            0.479402095912    -0.084005632075    -0.000054987387    12.000000000000
         C           -1.776801904088     0.752277367925     0.000205012613    12.000000000000
         C           -0.013506904088    -1.396541632075    -0.000108987387    12.000000000000
         C            0.082169095912     2.448779367925     0.000168012613    12.000000000000
         C           -2.268872904088    -0.553670632075     0.000151012613    12.000000000000
         C           -1.383750904088    -1.634692632075    -0.000003987387    12.000000000000
         C            1.951487095912     0.095856367925    -0.000168987387    12.000000000000
         H           -2.475949904088     1.586626367925     0.000323012613     1.007825032230
         H            0.703790095912    -2.213305632075    -0.000226987387     1.007825032230
         H            0.686366095912     2.677263367925    -0.883230987387     1.007825032230
         H           -0.772888904088     3.129759367925     0.000220012613     1.007825032230
         H            0.686394095912     2.677158367925     0.883576012613     1.007825032230
         H           -3.392175604088    -0.733734532075     0.000238912613     1.007825032230
         H           -1.762130904088    -2.653836632075    -0.000047987387     1.007825032230
         H            2.324372095912     1.136828367925    -0.000175987387     1.007825032230

  Basis Set: AUG-CC-PVTZ
    Blend: AUG-CC-PVTZ
  Basis Set: (AUG-CC-PVTZ AUX)
    Blend: AUG-CC-PVTZ-JKFIT
	 Reference Energy          =    -382.5917789885083380 [Eh]
	 Singles Energy            =      -0.0000000000000000 [Eh]
	 Same-Spin Energy          =      -0.4085701383755055 [Eh]
	 Opposite-Spin Energy      =      -1.2874474989843858 [Eh]
	 Correlation Energy        =      -1.6960176373598914 [Eh]
	 Total Energy              =    -384.2877966258682250 [Eh]

	 ================> DF-SCS-MP2 Energies <==================
	-----------------------------------------------------------
	 SCS Same-Spin Scale       =       0.3333333333333333 [-]
	 SCS Opposite-Spin Scale   =       1.2000000000000000 [-]
	 SCS Same-Spin Energy      =      -0.1361900461251685 [Eh]
	 SCS Opposite-Spin Energy  =      -1.5449369987812629 [Eh]
	 SCS Correlation Energy    =      -1.6811270449064313 [Eh]
	 SCS Total Energy          =    -384.2729060334147562 [Eh]
	-----------------------------------------------------------

  Dipole Moment: [D]
     X:    -2.6964      Y:     1.8913      Z:     0.0003     Total:     3.2936

*** Psi4 exiting successfully. Buy a developer a beer!
