                               Psi4 1.4a3.dev225

  ==> Input File <==

--------------------------------------------------------------------------
#psi4
#
memory 32 gb

molecule  {
0 1
  O        2.7820080    -0.8809860    -0.0002600
  C       -0.3718440     0.9737870     0.0000910
  C        0.5095440    -0.1275560    -0.0000600
  C       -1.7466600     0.7087270     0.0002000
  C        0.0166350    -1.4400920    -0.0001140
  C        0.1123110     2.4052290     0.0001630
  C       -2.2387310    -0.5972210     0.0001460
  C       -1.3536090    -1.6782430    -0.0000090
  C        1.9816290     0.0523060    -0.0001740
  H       -2.4779217     1.5813998     0.0003234
  H        0.7339320    -2.2568560    -0.0002320
  H        0.7165080     2.6337130    -0.8832360
  H       -0.7427470     3.0862090     0.0002150
  H        0.7165360     2.6336080     0.8835710
  H       -3.3126640    -0.7693710     0.0002300
  H       -1.7319890    -2.6973870    -0.0000530
  H        2.3545140     1.0932780    -0.0001810
units angstrom
no_reorient  #important for SAPT in psi4, default
symmetry c1  #important for SAPT in psi4, default
}

set PROPERTIES_ORIGIN ["COM"]
properties('MP2/aug-cc-pvtz', properties = ['dipole'])
--------------------------------------------------------------------------

    Molecular point group: c1
  Charge       = 0
  Multiplicity = 1
  Basis Set: AUG-CC-PVTZ
    Blend: AUG-CC-PVTZ
  Basis Set: (AUG-CC-PVTZ AUX)
    Blend: AUG-CC-PVTZ-JKFIT

    Orbital Energies [Eh]
    ---------------------

    Doubly Occupied:

       1A    -20.552323     2A    -11.335118     3A    -11.270656
       4A    -11.258118     5A    -11.252509     6A    -11.251397
       7A    -11.249149     8A    -11.244735     9A    -11.243714
      10A     -1.377046    11A     -1.172042    12A     -1.065589
      13A     -1.038855    14A     -0.954879    15A     -0.890001
      16A     -0.820067    17A     -0.785579    18A     -0.707723
      19A     -0.673753    20A     -0.643888    21A     -0.617155
      22A     -0.607234    23A     -0.597567    24A     -0.584760
      25A     -0.556696    26A     -0.538622    27A     -0.518983
      28A     -0.500623    29A     -0.491852    30A     -0.425705
      31A     -0.349289    32A     -0.343057

  @DF-RHF Final Energy:  -382.59175485954211

   => Energetics <=

    Nuclear Repulsion Energy =            401.7060811998842382
    One-Electron Energy =               -1314.7583028358794763
    Two-Electron Energy =                 530.4604667764531314
    Total Energy =                       -382.5917548595421067
  Basis Set: (AUG-CC-PVTZ AUX)
    Blend: AUG-CC-PVTZ-RI
    Molecular point group: c1

    Geometry (in Angstrom), charge = 0, multiplicity = 1:

       Center              X                  Y                   Z               Mass
    ------------   -----------------  -----------------  -----------------  -----------------
         O            2.751721240100    -0.837823775304    -0.000254999979    15.994914619570
         C           -0.402130759900     1.016949224696     0.000096000021    12.000000000000
         C            0.479257240100    -0.084393775304    -0.000054999979    12.000000000000
         C           -1.776946759900     0.751889224696     0.000205000021    12.000000000000
         C           -0.013651759900    -1.396929775304    -0.000108999979    12.000000000000
         C            0.082024240100     2.448391224696     0.000168000021    12.000000000000
         C           -2.269017759900    -0.554058775304     0.000151000021    12.000000000000
         C           -1.383895759900    -1.635080775304    -0.000003999979    12.000000000000
         C            1.951342240100     0.095468224696    -0.000168999979    12.000000000000
         H           -2.508208459900     1.624562024696     0.000328400021     1.007825032230
         H            0.703645240100    -2.213693775304    -0.000226999979     1.007825032230
         H            0.686221240100     2.676875224696    -0.883230999979     1.007825032230
         H           -0.773033759900     3.129371224696     0.000220000021     1.007825032230
         H            0.686249240100     2.676770224696     0.883576000021     1.007825032230
         H           -3.342950759900    -0.726208775304     0.000235000021     1.007825032230
         H           -1.762275759900    -2.654224775304    -0.000047999979     1.007825032230
         H            2.324227240100     1.136440224696    -0.000175999979     1.007825032230

  Basis Set: AUG-CC-PVTZ
    Blend: AUG-CC-PVTZ
  Basis Set: (AUG-CC-PVTZ AUX)
    Blend: AUG-CC-PVTZ-JKFIT
	 Reference Energy          =    -382.5917548595421067 [Eh]
	 Singles Energy            =      -0.0000000000000000 [Eh]
	 Same-Spin Energy          =      -0.4085959978713219 [Eh]
	 Opposite-Spin Energy      =      -1.2874464012013376 [Eh]
	 Correlation Energy        =      -1.6960423990726596 [Eh]
	 Total Energy              =    -384.2877972586147735 [Eh]

	 ================> DF-SCS-MP2 Energies <==================
	-----------------------------------------------------------
	 SCS Same-Spin Scale       =       0.3333333333333333 [-]
	 SCS Opposite-Spin Scale   =       1.2000000000000000 [-]
	 SCS Same-Spin Energy      =      -0.1361986659571073 [Eh]
	 SCS Opposite-Spin Energy  =      -1.5449356814416051 [Eh]
	 SCS Correlation Energy    =      -1.6811343473987124 [Eh]
	 SCS Total Energy          =    -384.2728892069408175 [Eh]
	-----------------------------------------------------------

  Dipole Moment: [D]
     X:    -2.7011      Y:     1.8686      Z:     0.0003     Total:     3.2845

*** Psi4 exiting successfully. Buy a developer a beer!
