                               Psi4 1.4a3.dev225

  ==> Input File <==

--------------------------------------------------------------------------
#psi4
#
memory 32 gb

molecule  {
0 1
  O        2.7820080    -0.8809860    -0.0002600
  C       -0.3718440     0.9737870     0.0000910
  C        0.5095440    -0.1275560    -0.0000600
  C       -1.7466600     0.7087270     0.0002000
  C        0.0166350    -1.4400920    -0.0001140
  C        0.1123110     2.4052290     0.0001630
  C       -2.2387310    -0.5972210     0.0001460
  C       -1.2550860    -1.6611195    -0.0000165
  C        1.9816290     0.0523060    -0.0001740
  H       -2.4458080     1.5430760     0.0003180
  H        0.7339320    -2.2568560    -0.0002320
  H        0.7165080     2.6337130    -0.8832360
  H       -0.7427470     3.0862090     0.0002150
  H        0.7165360     2.6336080     0.8835710
  H       -3.3126640    -0.7693710     0.0002300
  H       -1.7319890    -2.6973870    -0.0000530
  H        2.3545140     1.0932780    -0.0001810
units angstrom
no_reorient  #important for SAPT in psi4, default
symmetry c1  #important for SAPT in psi4, default
}

set PROPERTIES_ORIGIN ["COM"]
properties('MP2/aug-cc-pvtz', properties = ['dipole'])
--------------------------------------------------------------------------

    Molecular point group: c1
  Charge       = 0
  Multiplicity = 1
  Basis Set: AUG-CC-PVTZ
    Blend: AUG-CC-PVTZ
  Basis Set: (AUG-CC-PVTZ AUX)
    Blend: AUG-CC-PVTZ-JKFIT

    Orbital Energies [Eh]
    ---------------------

    Doubly Occupied:

       1A    -20.551404     2A    -11.333770     3A    -11.271565
       4A    -11.263855     5A    -11.248136     6A    -11.246919
       7A    -11.244342     8A    -11.241664     9A    -11.235731
      10A     -1.376130    11A     -1.177373    12A     -1.070117
      13A     -1.040934    14A     -0.959242    15A     -0.888984
      16A     -0.816604    17A     -0.789947    18A     -0.706390
      19A     -0.675566    20A     -0.643680    21A     -0.618128
      22A     -0.609397    23A     -0.598315    24A     -0.583768
      25A     -0.558922    26A     -0.539566    27A     -0.527722
      28A     -0.494338    29A     -0.485096    30A     -0.424501
      31A     -0.359153    32A     -0.339149

  @DF-RHF Final Energy:  -382.58044491257675

   => Energetics <=

    Nuclear Repulsion Energy =            403.1585928935695051
    One-Electron Energy =               -1317.6372598917180312
    Two-Electron Energy =                 531.8982220855717742
    Total Energy =                       -382.5804449125768087
  Basis Set: (AUG-CC-PVTZ AUX)
    Blend: AUG-CC-PVTZ-RI
    Molecular point group: c1

    Geometry (in Angstrom), charge = 0, multiplicity = 1:

       Center              X                  Y                   Z               Mass
    ------------   -----------------  -----------------  -----------------  -----------------
         O            2.741604080904    -0.839213595135    -0.000254205008    15.994914619570
         C           -0.412247919096     1.015559404865     0.000096794992    12.000000000000
         C            0.469140080904    -0.085783595135    -0.000054205008    12.000000000000
         C           -1.787063919096     0.750499404865     0.000205794992    12.000000000000
         C           -0.023768919096    -1.398319595135    -0.000108205008    12.000000000000
         C            0.071907080904     2.447001404865     0.000168794992    12.000000000000
         C           -2.279134919096    -0.555448595135     0.000151794992    12.000000000000
         C           -1.295489919096    -1.619347095135    -0.000010705008    12.000000000000
         C            1.941225080904     0.094078404865    -0.000168205008    12.000000000000
         H           -2.486211919096     1.584848404865     0.000323794992     1.007825032230
         H            0.693528080904    -2.215083595135    -0.000226205008     1.007825032230
         H            0.676104080904     2.675485404865    -0.883230205008     1.007825032230
         H           -0.783150919096     3.127981404865     0.000220794992     1.007825032230
         H            0.676132080904     2.675380404865     0.883576794992     1.007825032230
         H           -3.353067919096    -0.727598595135     0.000235794992     1.007825032230
         H           -1.772392919096    -2.655614595135    -0.000047205008     1.007825032230
         H            2.314110080904     1.135050404865    -0.000175205008     1.007825032230

  Basis Set: AUG-CC-PVTZ
    Blend: AUG-CC-PVTZ
  Basis Set: (AUG-CC-PVTZ AUX)
    Blend: AUG-CC-PVTZ-JKFIT
	 Reference Energy          =    -382.5804449125767519 [Eh]
	 Singles Energy            =      -0.0000000000000000 [Eh]
	 Same-Spin Energy          =      -0.4084206494186575 [Eh]
	 Opposite-Spin Energy      =      -1.2874417261420998 [Eh]
	 Correlation Energy        =      -1.6958623755607574 [Eh]
	 Total Energy              =    -384.2763072881375024 [Eh]

	 ================> DF-SCS-MP2 Energies <==================
	-----------------------------------------------------------
	 SCS Same-Spin Scale       =       0.3333333333333333 [-]
	 SCS Opposite-Spin Scale   =       1.2000000000000000 [-]
	 SCS Same-Spin Energy      =      -0.1361402164728858 [Eh]
	 SCS Opposite-Spin Energy  =      -1.5449300713705199 [Eh]
	 SCS Correlation Energy    =      -1.6810702878434056 [Eh]
	 SCS Total Energy          =    -384.2615152004201491 [Eh]
	-----------------------------------------------------------

  Dipole Moment: [D]
     X:    -2.7607      Y:     1.9644      Z:     0.0003     Total:     3.3882

*** Psi4 exiting successfully. Buy a developer a beer!
