                               Psi4 1.4a3.dev225

  ==> Input File <==

--------------------------------------------------------------------------
#psi4
#
memory 32 gb

molecule  {
0 1
  O        2.7820080    -0.8809860    -0.0002600
  C       -0.3718440     0.9737870     0.0000910
  C        0.5095440    -0.1275560    -0.0000600
  C       -1.7466600     0.7087270     0.0002000
  C        0.0166350    -1.4400920    -0.0001140
  C        0.1123110     2.4052290     0.0001630
  C       -2.2387310    -0.5972210     0.0001460
  C       -1.3536090    -1.6782430    -0.0000090
  C        1.9816290     0.0523060    -0.0001740
  H       -2.5742626     1.6963712     0.0003397
  H        0.7339320    -2.2568560    -0.0002320
  H        0.7165080     2.6337130    -0.8832360
  H       -0.7427470     3.0862090     0.0002150
  H        0.7165360     2.6336080     0.8835710
  H       -3.3126640    -0.7693710     0.0002300
  H       -1.7319890    -2.6973870    -0.0000530
  H        2.3545140     1.0932780    -0.0001810
units angstrom
no_reorient  #important for SAPT in psi4, default
symmetry c1  #important for SAPT in psi4, default
}

set PROPERTIES_ORIGIN ["COM"]
properties('MP2/aug-cc-pvtz', properties = ['dipole'])
--------------------------------------------------------------------------

    Molecular point group: c1
  Charge       = 0
  Multiplicity = 1
  Basis Set: AUG-CC-PVTZ
    Blend: AUG-CC-PVTZ
  Basis Set: (AUG-CC-PVTZ AUX)
    Blend: AUG-CC-PVTZ-JKFIT

    Orbital Energies [Eh]
    ---------------------

    Doubly Occupied:

       1A    -20.553151     2A    -11.336015     3A    -11.272716
       4A    -11.267383     5A    -11.259955     6A    -11.253518
       7A    -11.250654     8A    -11.246160     9A    -11.243538
      10A     -1.377835    11A     -1.172818    12A     -1.066556
      13A     -1.037241    14A     -0.954401    15A     -0.890586
      16A     -0.817341    17A     -0.782085    18A     -0.706185
      19A     -0.674267    20A     -0.642769    21A     -0.616242
      22A     -0.601135    23A     -0.597759    24A     -0.581187
      25A     -0.549429    26A     -0.539390    27A     -0.519884
      28A     -0.493079    29A     -0.491491    30A     -0.426434
      31A     -0.350521    32A     -0.344311

  @DF-RHF Final Energy:  -382.57206215981120

   => Energetics <=

    Nuclear Repulsion Energy =            401.0408393425094573
    One-Electron Energy =               -1313.3937317969059677
    Two-Electron Energy =                 529.7808302945853711
    Total Energy =                       -382.5720621598111393
  Basis Set: (AUG-CC-PVTZ AUX)
    Blend: AUG-CC-PVTZ-RI
    Molecular point group: c1

    Geometry (in Angstrom), charge = 0, multiplicity = 1:

       Center              X                  Y                   Z               Mass
    ------------   -----------------  -----------------  -----------------  -----------------
         O            2.752529975570    -0.838788904851    -0.000255136809    15.994914619570
         C           -0.401322024430     1.015984095149     0.000095863191    12.000000000000
         C            0.480065975570    -0.085358904851    -0.000055136809    12.000000000000
         C           -1.776138024430     0.750924095149     0.000204863191    12.000000000000
         C           -0.012843024430    -1.397894904851    -0.000109136809    12.000000000000
         C            0.082832975570     2.447426095149     0.000167863191    12.000000000000
         C           -2.268209024430    -0.555023904851     0.000150863191    12.000000000000
         C           -1.383087024430    -1.636045904851    -0.000004136809    12.000000000000
         C            1.952150975570     0.094503095149    -0.000169136809    12.000000000000
         H           -2.603740624430     1.738568295149     0.000344563191     1.007825032230
         H            0.704453975570    -2.214658904851    -0.000227136809     1.007825032230
         H            0.687029975570     2.675910095149    -0.883231136809     1.007825032230
         H           -0.772225024430     3.128406095149     0.000219863191     1.007825032230
         H            0.687057975570     2.675805095149     0.883575863191     1.007825032230
         H           -3.342142024430    -0.727173904851     0.000234863191     1.007825032230
         H           -1.761467024430    -2.655189904851    -0.000048136809     1.007825032230
         H            2.325035975570     1.135475095149    -0.000176136809     1.007825032230

  Basis Set: AUG-CC-PVTZ
    Blend: AUG-CC-PVTZ
  Basis Set: (AUG-CC-PVTZ AUX)
    Blend: AUG-CC-PVTZ-JKFIT
	 Reference Energy          =    -382.5720621598111961 [Eh]
	 Singles Energy            =      -0.0000000000000000 [Eh]
	 Same-Spin Energy          =      -0.4090576186161866 [Eh]
	 Opposite-Spin Energy      =      -1.2892498935293419 [Eh]
	 Correlation Energy        =      -1.6983075121455284 [Eh]
	 Total Energy              =    -384.2703696719567006 [Eh]

	 ================> DF-SCS-MP2 Energies <==================
	-----------------------------------------------------------
	 SCS Same-Spin Scale       =       0.3333333333333333 [-]
	 SCS Opposite-Spin Scale   =       1.2000000000000000 [-]
	 SCS Same-Spin Energy      =      -0.1363525395387289 [Eh]
	 SCS Opposite-Spin Energy  =      -1.5470998722352103 [Eh]
	 SCS Correlation Energy    =      -1.6834524117739391 [Eh]
	 SCS Total Energy          =    -384.2555145715851381 [Eh]
	-----------------------------------------------------------

  Dipole Moment: [D]
     X:    -2.6377      Y:     1.7983      Z:     0.0003     Total:     3.1924

*** Psi4 exiting successfully. Buy a developer a beer!
