                               Psi4 1.4a3.dev225

  ==> Input File <==

--------------------------------------------------------------------------
#psi4
#
memory 32 gb

molecule  {
0 1
  O        2.7820080    -0.8809860    -0.0002600
  C       -0.3718440     0.9737870     0.0000910
  C        0.5167178    -0.1788215    -0.0000617
  C       -1.7466600     0.7087270     0.0002000
  C        0.0166350    -1.4400920    -0.0001140
  C        0.1123110     2.4052290     0.0001630
  C       -2.2387310    -0.5972210     0.0001460
  C       -1.3536090    -1.6782430    -0.0000090
  C        1.9816290     0.0523060    -0.0001740
  H       -2.4458080     1.5430760     0.0003180
  H        0.7339320    -2.2568560    -0.0002320
  H        0.7165080     2.6337130    -0.8832360
  H       -0.7427470     3.0862090     0.0002150
  H        0.7165360     2.6336080     0.8835710
  H       -3.3126640    -0.7693710     0.0002300
  H       -1.7319890    -2.6973870    -0.0000530
  H        2.3545140     1.0932780    -0.0001810
units angstrom
no_reorient  #important for SAPT in psi4, default
symmetry c1  #important for SAPT in psi4, default
}

set PROPERTIES_ORIGIN ["COM"]
properties('MP2/aug-cc-pvtz', properties = ['dipole'])
--------------------------------------------------------------------------

    Molecular point group: c1
  Charge       = 0
  Multiplicity = 1
  Basis Set: AUG-CC-PVTZ
    Blend: AUG-CC-PVTZ
  Basis Set: (AUG-CC-PVTZ AUX)
    Blend: AUG-CC-PVTZ-JKFIT

    Orbital Energies [Eh]
    ---------------------

    Doubly Occupied:

       1A    -20.551416     2A    -11.334638     3A    -11.272915
       4A    -11.256662     5A    -11.248678     6A    -11.246752
       7A    -11.244960     8A    -11.244627     9A    -11.244106
      10A     -1.377124    11A     -1.170944    12A     -1.062109
      13A     -1.044811    14A     -0.954478    15A     -0.889445
      16A     -0.820193    17A     -0.786570    18A     -0.710542
      19A     -0.670631    20A     -0.646370    21A     -0.622069
      22A     -0.607238    23A     -0.596743    24A     -0.584252
      25A     -0.560179    26A     -0.539339    27A     -0.519178
      28A     -0.498684    29A     -0.491487    30A     -0.426242
      31A     -0.354124    32A     -0.337024

  @DF-RHF Final Energy:  -382.59099742753881

   => Energetics <=

    Nuclear Repulsion Energy =            401.9271951964907430
    One-Electron Energy =               -1315.2073266870670523
    Two-Electron Energy =                 530.6891340630374998
    Total Energy =                       -382.5909974275388095
  Basis Set: (AUG-CC-PVTZ AUX)
    Blend: AUG-CC-PVTZ-RI
    Molecular point group: c1

    Geometry (in Angstrom), charge = 0, multiplicity = 1:

       Center              X                  Y                   Z               Mass
    ------------   -----------------  -----------------  -----------------  -----------------
         O            2.750734624720    -0.832377971385    -0.000254784730    15.994914619570
         C           -0.403117375280     1.022395028615     0.000096215270    12.000000000000
         C            0.485444424720    -0.130213471385    -0.000056484730    12.000000000000
         C           -1.777933375280     0.757335028615     0.000205215270    12.000000000000
         C           -0.014638375280    -1.391483971385    -0.000108784730    12.000000000000
         C            0.081037624720     2.453837028615     0.000168215270    12.000000000000
         C           -2.270004375280    -0.548612971385     0.000151215270    12.000000000000
         C           -1.384882375280    -1.629634971385    -0.000003784730    12.000000000000
         C            1.950355624720     0.100914028615    -0.000168784730    12.000000000000
         H           -2.477081375280     1.591684028615     0.000323215270     1.007825032230
         H            0.702658624720    -2.208247971385    -0.000226784730     1.007825032230
         H            0.685234624720     2.682321028615    -0.883230784730     1.007825032230
         H           -0.774020375280     3.134817028615     0.000220215270     1.007825032230
         H            0.685262624720     2.682216028615     0.883576215270     1.007825032230
         H           -3.343937375280    -0.720762971385     0.000235215270     1.007825032230
         H           -1.763262375280    -2.648778971385    -0.000047784730     1.007825032230
         H            2.323240624720     1.141886028615    -0.000175784730     1.007825032230

  Basis Set: AUG-CC-PVTZ
    Blend: AUG-CC-PVTZ
  Basis Set: (AUG-CC-PVTZ AUX)
    Blend: AUG-CC-PVTZ-JKFIT
	 Reference Energy          =    -382.5909974275388095 [Eh]
	 Singles Energy            =      -0.0000000000000000 [Eh]
	 Same-Spin Energy          =      -0.4084263831332327 [Eh]
	 Opposite-Spin Energy      =      -1.2870887975191772 [Eh]
	 Correlation Energy        =      -1.6955151806524098 [Eh]
	 Total Energy              =    -384.2865126081912308 [Eh]

	 ================> DF-SCS-MP2 Energies <==================
	-----------------------------------------------------------
	 SCS Same-Spin Scale       =       0.3333333333333333 [-]
	 SCS Opposite-Spin Scale   =       1.2000000000000000 [-]
	 SCS Same-Spin Energy      =      -0.1361421277110775 [Eh]
	 SCS Opposite-Spin Energy  =      -1.5445065570230125 [Eh]
	 SCS Correlation Energy    =      -1.6806486847340900 [Eh]
	 SCS Total Energy          =    -384.2716461122728902 [Eh]
	-----------------------------------------------------------

  Dipole Moment: [D]
     X:    -2.6701      Y:     1.9193      Z:     0.0003     Total:     3.2883

*** Psi4 exiting successfully. Buy a developer a beer!
