                               Psi4 1.4a3.dev225

  ==> Input File <==

--------------------------------------------------------------------------
#psi4
#
memory 32 gb

molecule  {
0 1
  O        2.7820080    -0.8809860    -0.0002600
  C       -0.3718440     0.9737870     0.0000910
  C        0.5095440    -0.1275560    -0.0000600
  C       -1.7466600     0.7087270     0.0002000
  C        0.0166350    -1.4400920    -0.0001140
  C        0.1123110     2.4052290     0.0001630
  C       -2.2387310    -0.5972210     0.0001460
  C       -1.3536090    -1.6782430    -0.0000090
  C        1.9816290     0.0523060    -0.0001740
  H       -2.3815807     1.4664284     0.0003072
  H        0.7339320    -2.2568560    -0.0002320
  H        0.7165080     2.6337130    -0.8832360
  H       -0.7427470     3.0862090     0.0002150
  H        0.7165360     2.6336080     0.8835710
  H       -3.3126640    -0.7693710     0.0002300
  H       -1.7319890    -2.6973870    -0.0000530
  H        2.3545140     1.0932780    -0.0001810
units angstrom
no_reorient  #important for SAPT in psi4, default
symmetry c1  #important for SAPT in psi4, default
}

set PROPERTIES_ORIGIN ["COM"]
properties('MP2/aug-cc-pvtz', properties = ['dipole'])
--------------------------------------------------------------------------

    Molecular point group: c1
  Charge       = 0
  Multiplicity = 1
  Basis Set: AUG-CC-PVTZ
    Blend: AUG-CC-PVTZ
  Basis Set: (AUG-CC-PVTZ AUX)
    Blend: AUG-CC-PVTZ-JKFIT

    Orbital Energies [Eh]
    ---------------------

    Doubly Occupied:

       1A    -20.551726     2A    -11.334470     3A    -11.269267
       4A    -11.256770     5A    -11.251932     6A    -11.248019
       7A    -11.243965     8A    -11.243699     9A    -11.233619
      10A     -1.376486    11A     -1.172256    12A     -1.065029
      13A     -1.042893    14A     -0.956476    15A     -0.890317
      16A     -0.827258    17A     -0.790441    18A     -0.710909
      19A     -0.673804    20A     -0.648886    21A     -0.623109
      22A     -0.611684    23A     -0.597531    24A     -0.586808
      25A     -0.561411    26A     -0.538094    27A     -0.518501
      28A     -0.505126    29A     -0.491022    30A     -0.425161
      31A     -0.348551    32A     -0.342247

  @DF-RHF Final Energy:  -382.58856650583027

   => Energetics <=

    Nuclear Repulsion Energy =            402.4908603406157113
    One-Electron Energy =               -1316.2839299546944858
    Two-Electron Energy =                 531.2045031082485593
    Total Energy =                       -382.5885665058302720
  Basis Set: (AUG-CC-PVTZ AUX)
    Blend: AUG-CC-PVTZ-RI
    Molecular point group: c1

    Geometry (in Angstrom), charge = 0, multiplicity = 1:

       Center              X                  Y                   Z               Mass
    ------------   -----------------  -----------------  -----------------  -----------------
         O            2.750912503791    -0.836858645757    -0.000254863988    15.994914619570
         C           -0.402939496209     1.017914354243     0.000096136012    12.000000000000
         C            0.478448503791    -0.083428645757    -0.000054863988    12.000000000000
         C           -1.777755496209     0.752854354243     0.000205136012    12.000000000000
         C           -0.014460496209    -1.395964645757    -0.000108863988    12.000000000000
         C            0.081215503791     2.449356354243     0.000168136012    12.000000000000
         C           -2.269826496209    -0.553093645757     0.000151136012    12.000000000000
         C           -1.384704496209    -1.634115645757    -0.000003863988    12.000000000000
         C            1.950533503791     0.096433354243    -0.000168863988    12.000000000000
         H           -2.412676196209     1.510555754243     0.000312336012     1.007825032230
         H            0.702836503791    -2.212728645757    -0.000226863988     1.007825032230
         H            0.685412503791     2.677840354243    -0.883230863988     1.007825032230
         H           -0.773842496209     3.130336354243     0.000220136012     1.007825032230
         H            0.685440503791     2.677735354243     0.883576136012     1.007825032230
         H           -3.343759496209    -0.725243645757     0.000235136012     1.007825032230
         H           -1.763084496209    -2.653259645757    -0.000047863988     1.007825032230
         H            2.323418503791     1.137405354243    -0.000175863988     1.007825032230

  Basis Set: AUG-CC-PVTZ
    Blend: AUG-CC-PVTZ
  Basis Set: (AUG-CC-PVTZ AUX)
    Blend: AUG-CC-PVTZ-JKFIT
	 Reference Energy          =    -382.5885665058302720 [Eh]
	 Singles Energy            =      -0.0000000000000000 [Eh]
	 Same-Spin Energy          =      -0.4082652498703963 [Eh]
	 Opposite-Spin Energy      =      -1.2864579881046874 [Eh]
	 Correlation Energy        =      -1.6947232379750836 [Eh]
	 Total Energy              =    -384.2832897438053692 [Eh]

	 ================> DF-SCS-MP2 Energies <==================
	-----------------------------------------------------------
	 SCS Same-Spin Scale       =       0.3333333333333333 [-]
	 SCS Opposite-Spin Scale   =       1.2000000000000000 [-]
	 SCS Same-Spin Energy      =      -0.1360884166234654 [Eh]
	 SCS Opposite-Spin Energy  =      -1.5437495857256247 [Eh]
	 SCS Correlation Energy    =      -1.6798380023490902 [Eh]
	 SCS Total Energy          =    -384.2684045081793442 [Eh]
	-----------------------------------------------------------

  Dipole Moment: [D]
     X:    -2.7383      Y:     1.9132      Z:     0.0003     Total:     3.3405

*** Psi4 exiting successfully. Buy a developer a beer!
