                               Psi4 1.4a3.dev225

  ==> Input File <==

--------------------------------------------------------------------------
#psi4
#
memory 32 gb

molecule  {
0 1
  O        2.7820080    -0.8809860    -0.0002600
  C       -0.3718440     0.9737870     0.0000910
  C        0.5095440    -0.1275560    -0.0000600
  C       -1.6567603     0.6712206     0.0001891
  C        0.0166350    -1.4400920    -0.0001140
  C        0.1123110     2.4052290     0.0001630
  C       -2.2387310    -0.5972210     0.0001460
  C       -1.3536090    -1.6782430    -0.0000090
  C        1.9816290     0.0523060    -0.0001740
  H       -2.4458080     1.5430760     0.0003180
  H        0.7339320    -2.2568560    -0.0002320
  H        0.7165080     2.6337130    -0.8832360
  H       -0.7427470     3.0862090     0.0002150
  H        0.7165360     2.6336080     0.8835710
  H       -3.3126640    -0.7693710     0.0002300
  H       -1.7319890    -2.6973870    -0.0000530
  H        2.3545140     1.0932780    -0.0001810
units angstrom
no_reorient  #important for SAPT in psi4, default
symmetry c1  #important for SAPT in psi4, default
}

set PROPERTIES_ORIGIN ["COM"]
properties('MP2/aug-cc-pvtz', properties = ['dipole'])
--------------------------------------------------------------------------

    Molecular point group: c1
  Charge       = 0
  Multiplicity = 1
  Basis Set: AUG-CC-PVTZ
    Blend: AUG-CC-PVTZ
  Basis Set: (AUG-CC-PVTZ AUX)
    Blend: AUG-CC-PVTZ-JKFIT

    Orbital Energies [Eh]
    ---------------------

    Doubly Occupied:

       1A    -20.551974     2A    -11.334342     3A    -11.258725
       4A    -11.258373     5A    -11.251959     6A    -11.249045
       7A    -11.245359     8A    -11.243957     9A    -11.243581
      10A     -1.376631    11A     -1.181905    12A     -1.069500
      13A     -1.039415    14A     -0.956878    15A     -0.896844
      16A     -0.818353    17A     -0.786071    18A     -0.710758
      19A     -0.674165    20A     -0.647148    21A     -0.615700
      22A     -0.600916    23A     -0.599329    24A     -0.588532
      25A     -0.552357    26A     -0.539089    27A     -0.531103
      28A     -0.496083    29A     -0.484212    30A     -0.425600
      31A     -0.353006    32A     -0.345723

  @DF-RHF Final Energy:  -382.58181794183258

   => Energetics <=

    Nuclear Repulsion Energy =            403.6832622557483887
    One-Electron Energy =               -1318.6768967228249494
    Two-Electron Energy =                 532.4118165252440349
    Total Energy =                       -382.5818179418325826
  Basis Set: (AUG-CC-PVTZ AUX)
    Blend: AUG-CC-PVTZ-RI
    Molecular point group: c1

    Geometry (in Angstrom), charge = 0, multiplicity = 1:

       Center              X                  Y                   Z               Mass
    ------------   -----------------  -----------------  -----------------  -----------------
         O            2.742465997795    -0.833753222241    -0.000253865171    15.994914619570
         C           -0.411386002205     1.021019777759     0.000097134829    12.000000000000
         C            0.470001997795    -0.080323222241    -0.000053865171    12.000000000000
         C           -1.696302302205     0.718453377759     0.000195234829    12.000000000000
         C           -0.022907002205    -1.392859222241    -0.000107865171    12.000000000000
         C            0.072768997795     2.452461777759     0.000169134829    12.000000000000
         C           -2.278273002205    -0.549988222241     0.000152134829    12.000000000000
         C           -1.393151002205    -1.631010222241    -0.000002865171    12.000000000000
         C            1.942086997795     0.099538777759    -0.000167865171    12.000000000000
         H           -2.485350002205     1.590308777759     0.000324134829     1.007825032230
         H            0.694389997795    -2.209623222241    -0.000225865171     1.007825032230
         H            0.676965997795     2.680945777759    -0.883229865171     1.007825032230
         H           -0.782289002205     3.133441777759     0.000221134829     1.007825032230
         H            0.676993997795     2.680840777759     0.883577134829     1.007825032230
         H           -3.352206002205    -0.722138222241     0.000236134829     1.007825032230
         H           -1.771531002205    -2.650154222241    -0.000046865171     1.007825032230
         H            2.314971997795     1.140510777759    -0.000174865171     1.007825032230

  Basis Set: AUG-CC-PVTZ
    Blend: AUG-CC-PVTZ
  Basis Set: (AUG-CC-PVTZ AUX)
    Blend: AUG-CC-PVTZ-JKFIT
	 Reference Energy          =    -382.5818179418325826 [Eh]
	 Singles Energy            =      -0.0000000000000000 [Eh]
	 Same-Spin Energy          =      -0.4089367369995863 [Eh]
	 Opposite-Spin Energy      =      -1.2877011489255872 [Eh]
	 Correlation Energy        =      -1.6966378859251736 [Eh]
	 Total Energy              =    -384.2784558277577389 [Eh]

	 ================> DF-SCS-MP2 Energies <==================
	-----------------------------------------------------------
	 SCS Same-Spin Scale       =       0.3333333333333333 [-]
	 SCS Opposite-Spin Scale   =       1.2000000000000000 [-]
	 SCS Same-Spin Energy      =      -0.1363122456665288 [Eh]
	 SCS Opposite-Spin Energy  =      -1.5452413787107047 [Eh]
	 SCS Correlation Energy    =      -1.6815536243772333 [Eh]
	 SCS Total Energy          =    -384.2633715662097984 [Eh]
	-----------------------------------------------------------

  Dipole Moment: [D]
     X:    -2.6897      Y:     1.7951      Z:     0.0003     Total:     3.2337

*** Psi4 exiting successfully. Buy a developer a beer!
