                               Psi4 1.4a3.dev225

  ==> Input File <==

--------------------------------------------------------------------------
#psi4
#
memory 32 gb

molecule  {
0 1
  O        2.7820080    -0.8809860    -0.0002600
  C       -0.3718440     0.9737870     0.0000910
  C        0.5095440    -0.1275560    -0.0000600
  C       -1.7466600     0.7087270     0.0002000
  C        0.0166350    -1.4400920    -0.0001140
  C        0.1123110     2.4052290     0.0001630
  C       -2.2387310    -0.5972210     0.0001460
  C       -1.3536090    -1.6782430    -0.0000090
  C        1.9816290     0.0523060    -0.0001740
  H       -2.4458080     1.5430760     0.0003180
  H        0.7339320    -2.2568560    -0.0002320
  H        0.7165080     2.6337130    -0.8832360
  H       -0.7818588     3.1173582     0.0002174
  H        0.7165360     2.6336080     0.8835710
  H       -3.3126640    -0.7693710     0.0002300
  H       -1.7319890    -2.6973870    -0.0000530
  H        2.3545140     1.0932780    -0.0001810
units angstrom
no_reorient  #important for SAPT in psi4, default
symmetry c1  #important for SAPT in psi4, default
}

set PROPERTIES_ORIGIN ["COM"]
properties('MP2/aug-cc-pvtz', properties = ['dipole'])
--------------------------------------------------------------------------

    Molecular point group: c1
  Charge       = 0
  Multiplicity = 1
  Basis Set: AUG-CC-PVTZ
    Blend: AUG-CC-PVTZ
  Basis Set: (AUG-CC-PVTZ AUX)
    Blend: AUG-CC-PVTZ-JKFIT

    Orbital Energies [Eh]
    ---------------------

    Doubly Occupied:

       1A    -20.552376     2A    -11.335190     3A    -11.270556
       4A    -11.257645     5A    -11.252464     6A    -11.249657
       7A    -11.249118     8A    -11.245707     9A    -11.244509
      10A     -1.377101    11A     -1.172085    12A     -1.064667
      13A     -1.039825    14A     -0.952389    15A     -0.890202
      16A     -0.820935    17A     -0.787273    18A     -0.708799
      19A     -0.672653    20A     -0.645192    21A     -0.617890
      22A     -0.609597    23A     -0.598177    24A     -0.585942
      25A     -0.549969    26A     -0.538740    27A     -0.518472
      28A     -0.502333    29A     -0.491722    30A     -0.425722
      31A     -0.349147    32A     -0.342941

  @DF-RHF Final Energy:  -382.59203463551432

   => Energetics <=

    Nuclear Repulsion Energy =            401.7371819700564402
    One-Electron Energy =               -1314.8204380460538232
    Two-Electron Energy =                 530.4912214404830593
    Total Energy =                       -382.5920346355143238
  Basis Set: (AUG-CC-PVTZ AUX)
    Blend: AUG-CC-PVTZ-RI
    Molecular point group: c1

    Geometry (in Angstrom), charge = 0, multiplicity = 1:

       Center              X                  Y                   Z               Mass
    ------------   -----------------  -----------------  -----------------  -----------------
         O            2.751779985780    -0.837763547991    -0.000254974795    15.994914619570
         C           -0.402072014220     1.017009452009     0.000096025205    12.000000000000
         C            0.479315985780    -0.084333547991    -0.000054974795    12.000000000000
         C           -1.776888014220     0.751949452009     0.000205025205    12.000000000000
         C           -0.013593014220    -1.396869547991    -0.000108974795    12.000000000000
         C            0.082082985780     2.448451452009     0.000168025205    12.000000000000
         C           -2.268959014220    -0.553998547991     0.000151025205    12.000000000000
         C           -1.383837014220    -1.635020547991    -0.000003974795    12.000000000000
         C            1.951400985780     0.095528452009    -0.000168974795    12.000000000000
         H           -2.476036014220     1.586298452009     0.000323025205     1.007825032230
         H            0.703703985780    -2.213633547991    -0.000226974795     1.007825032230
         H            0.686279985780     2.676935452009    -0.883230974795     1.007825032230
         H           -0.812086814220     3.160580652009     0.000222425205     1.007825032230
         H            0.686307985780     2.676830452009     0.883576025205     1.007825032230
         H           -3.342892014220    -0.726148547991     0.000235025205     1.007825032230
         H           -1.762217014220    -2.654164547991    -0.000047974795     1.007825032230
         H            2.324285985780     1.136500452009    -0.000175974795     1.007825032230

  Basis Set: AUG-CC-PVTZ
    Blend: AUG-CC-PVTZ
  Basis Set: (AUG-CC-PVTZ AUX)
    Blend: AUG-CC-PVTZ-JKFIT
	 Reference Energy          =    -382.5920346355143238 [Eh]
	 Singles Energy            =      -0.0000000000000000 [Eh]
	 Same-Spin Energy          =      -0.4085055618618154 [Eh]
	 Opposite-Spin Energy      =      -1.2874388103097043 [Eh]
	 Correlation Energy        =      -1.6959443721715197 [Eh]
	 Total Energy              =    -384.2879790076858626 [Eh]

	 ================> DF-SCS-MP2 Energies <==================
	-----------------------------------------------------------
	 SCS Same-Spin Scale       =       0.3333333333333333 [-]
	 SCS Opposite-Spin Scale   =       1.2000000000000000 [-]
	 SCS Same-Spin Energy      =      -0.1361685206206051 [Eh]
	 SCS Opposite-Spin Energy  =      -1.5449265723716452 [Eh]
	 SCS Correlation Energy    =      -1.6810950929922504 [Eh]
	 SCS Total Energy          =    -384.2731297285065466 [Eh]
	-----------------------------------------------------------

  Dipole Moment: [D]
     X:    -2.7031      Y:     1.8582      Z:     0.0003     Total:     3.2802

*** Psi4 exiting successfully. Buy a developer a beer!
