                               Psi4 1.4a3.dev225

  ==> Input File <==

--------------------------------------------------------------------------
#psi4
#
memory 32 gb

molecule  {
0 1
  O        2.7820080    -0.8809860    -0.0002600
  C       -0.3718440     0.9737870     0.0000910
  C        0.5256765    -0.2298053    -0.0000635
  C       -1.7466600     0.7087270     0.0002000
  C        0.0166350    -1.4400920    -0.0001140
  C        0.1123110     2.4052290     0.0001630
  C       -2.2387310    -0.5972210     0.0001460
  C       -1.3536090    -1.6782430    -0.0000090
  C        1.9816290     0.0523060    -0.0001740
  H       -2.4458080     1.5430760     0.0003180
  H        0.7339320    -2.2568560    -0.0002320
  H        0.7165080     2.6337130    -0.8832360
  H       -0.7427470     3.0862090     0.0002150
  H        0.7165360     2.6336080     0.8835710
  H       -3.3126640    -0.7693710     0.0002300
  H       -1.7319890    -2.6973870    -0.0000530
  H        2.3545140     1.0932780    -0.0001810
units angstrom
no_reorient  #important for SAPT in psi4, default
symmetry c1  #important for SAPT in psi4, default
}

set PROPERTIES_ORIGIN ["COM"]
properties('MP2/aug-cc-pvtz', properties = ['dipole'])
--------------------------------------------------------------------------

    Molecular point group: c1
  Charge       = 0
  Multiplicity = 1
  Basis Set: AUG-CC-PVTZ
    Blend: AUG-CC-PVTZ
  Basis Set: (AUG-CC-PVTZ AUX)
    Blend: AUG-CC-PVTZ-JKFIT

    Orbital Energies [Eh]
    ---------------------

    Doubly Occupied:

       1A    -20.551251     2A    -11.334922     3A    -11.274956
       4A    -11.255701     5A    -11.247685     6A    -11.245271
       7A    -11.244135     8A    -11.244060     9A    -11.240922
      10A     -1.377904    11A     -1.170612    12A     -1.060242
      13A     -1.048753    14A     -0.953485    15A     -0.889181
      16A     -0.820390    17A     -0.784218    18A     -0.712784
      19A     -0.667694    20A     -0.648959    21A     -0.624792
      22A     -0.605230    23A     -0.596008    24A     -0.582660
      25A     -0.561262    26A     -0.540738    27A     -0.520213
      28A     -0.492362    29A     -0.491591    30A     -0.426209
      31A     -0.360211    32A     -0.331369

  @DF-RHF Final Energy:  -382.58081508291247

   => Energetics <=

    Nuclear Repulsion Energy =            401.9263315290281184
    One-Electron Energy =               -1315.2027503592642006
    Two-Electron Energy =                 530.6956037473235028
    Total Energy =                       -382.5808150829125225
  Basis Set: (AUG-CC-PVTZ AUX)
    Blend: AUG-CC-PVTZ-RI
    Molecular point group: c1

    Geometry (in Angstrom), charge = 0, multiplicity = 1:

       Center              X                  Y                   Z               Mass
    ------------   -----------------  -----------------  -----------------  -----------------
         O            2.749839183896    -0.827282033821    -0.000254604816    15.994914619570
         C           -0.404012816104     1.027490966179     0.000096395184    12.000000000000
         C            0.493507683896    -0.176101333821    -0.000058104816    12.000000000000
         C           -1.778828816104     0.762430966179     0.000205395184    12.000000000000
         C           -0.015533816104    -1.386388033821    -0.000108604816    12.000000000000
         C            0.080142183896     2.458932966179     0.000168395184    12.000000000000
         C           -2.270899816104    -0.543517033821     0.000151395184    12.000000000000
         C           -1.385777816104    -1.624539033821    -0.000003604816    12.000000000000
         C            1.949460183896     0.106009966179    -0.000168604816    12.000000000000
         H           -2.477976816104     1.596779966179     0.000323395184     1.007825032230
         H            0.701763183896    -2.203152033821    -0.000226604816     1.007825032230
         H            0.684339183896     2.687416966179    -0.883230604816     1.007825032230
         H           -0.774915816104     3.139912966179     0.000220395184     1.007825032230
         H            0.684367183896     2.687311966179     0.883576395184     1.007825032230
         H           -3.344832816104    -0.715667033821     0.000235395184     1.007825032230
         H           -1.764157816104    -2.643683033821    -0.000047604816     1.007825032230
         H            2.322345183896     1.146981966179    -0.000175604816     1.007825032230

  Basis Set: AUG-CC-PVTZ
    Blend: AUG-CC-PVTZ
  Basis Set: (AUG-CC-PVTZ AUX)
    Blend: AUG-CC-PVTZ-JKFIT
	 Reference Energy          =    -382.5808150829124656 [Eh]
	 Singles Energy            =      -0.0000000000000000 [Eh]
	 Same-Spin Energy          =      -0.4082973836670671 [Eh]
	 Opposite-Spin Energy      =      -1.2874355768575432 [Eh]
	 Correlation Energy        =      -1.6957329605246103 [Eh]
	 Total Energy              =    -384.2765480434370602 [Eh]

	 ================> DF-SCS-MP2 Energies <==================
	-----------------------------------------------------------
	 SCS Same-Spin Scale       =       0.3333333333333333 [-]
	 SCS Opposite-Spin Scale   =       1.2000000000000000 [-]
	 SCS Same-Spin Energy      =      -0.1360991278890224 [Eh]
	 SCS Opposite-Spin Energy  =      -1.5449226922290518 [Eh]
	 SCS Correlation Energy    =      -1.6810218201180742 [Eh]
	 SCS Total Energy          =    -384.2618369030305416 [Eh]
	-----------------------------------------------------------

  Dipole Moment: [D]
     X:    -2.6148      Y:     1.9479      Z:     0.0003     Total:     3.2606

*** Psi4 exiting successfully. Buy a developer a beer!
