                               Psi4 1.4a3.dev225

  ==> Input File <==

--------------------------------------------------------------------------
#psi4
#
memory 32 gb

molecule  {
0 1
  O        2.7820080    -0.8809860    -0.0002600
  C       -0.3718440     0.9737870     0.0000910
  C        0.5095440    -0.1275560    -0.0000600
  C       -1.7466600     0.7087270     0.0002000
  C        0.0166350    -1.4400920    -0.0001140
  C        0.1123110     2.4052290     0.0001630
  C       -2.2387310    -0.5972210     0.0001460
  C       -1.3536090    -1.6782430    -0.0000090
  C        1.9816290     0.0523060    -0.0001740
  H       -2.4458080     1.5430760     0.0003180
  H        0.7339320    -2.2568560    -0.0002320
  H        0.7165080     2.6337130    -0.8832360
  H       -0.7427470     3.0862090     0.0002150
  H        0.7165360     2.6336080     0.8835710
  H       -3.3126640    -0.7693710     0.0002300
  H       -1.7319890    -2.6973870    -0.0000530
  H        2.3713753     1.1403492    -0.0001813
units angstrom
no_reorient  #important for SAPT in psi4, default
symmetry c1  #important for SAPT in psi4, default
}

set PROPERTIES_ORIGIN ["COM"]
properties('MP2/aug-cc-pvtz', properties = ['dipole'])
--------------------------------------------------------------------------

    Molecular point group: c1
  Charge       = 0
  Multiplicity = 1
  Basis Set: AUG-CC-PVTZ
    Blend: AUG-CC-PVTZ
  Basis Set: (AUG-CC-PVTZ AUX)
    Blend: AUG-CC-PVTZ-JKFIT

    Orbital Energies [Eh]
    ---------------------

    Doubly Occupied:

       1A    -20.553231     2A    -11.340435     3A    -11.270393
       4A    -11.257908     5A    -11.252828     6A    -11.249658
       7A    -11.245833     8A    -11.244641     9A    -11.243535
      10A     -1.377484    11A     -1.172282    12A     -1.065366
      13A     -1.040145    14A     -0.955194    15A     -0.887087
      16A     -0.822143    17A     -0.781975    18A     -0.705996
      19A     -0.673121    20A     -0.644800    21A     -0.617004
      22A     -0.608744    23A     -0.597375    24A     -0.585747
      25A     -0.558568    26A     -0.539031    27A     -0.519006
      28A     -0.502755    29A     -0.491986    30A     -0.423337
      31A     -0.349467    32A     -0.342961

  @DF-RHF Final Energy:  -382.59171547152346

   => Energetics <=

    Nuclear Repulsion Energy =            401.7289870225518484
    One-Electron Energy =               -1314.8013366672075790
    Two-Electron Energy =                 530.4806341731323300
    Total Energy =                       -382.5917154715234574
  Basis Set: (AUG-CC-PVTZ AUX)
    Blend: AUG-CC-PVTZ-RI
    Molecular point group: c1

    Geometry (in Angstrom), charge = 0, multiplicity = 1:

       Center              X                  Y                   Z               Mass
    ------------   -----------------  -----------------  -----------------  -----------------
         O            2.751310118556    -0.837897205515    -0.000254952130    15.994914619570
         C           -0.402541881444     1.016875794485     0.000096047870    12.000000000000
         C            0.478846118556    -0.084467205515    -0.000054952130    12.000000000000
         C           -1.777357881444     0.751815794485     0.000205047870    12.000000000000
         C           -0.014062881444    -1.397003205515    -0.000108952130    12.000000000000
         C            0.081613118556     2.448317794485     0.000168047870    12.000000000000
         C           -2.269428881444    -0.554132205515     0.000151047870    12.000000000000
         C           -1.384306881444    -1.635154205515    -0.000003952130    12.000000000000
         C            1.950931118556     0.095394794485    -0.000168952130    12.000000000000
         H           -2.476505881444     1.586164794485     0.000323047870     1.007825032230
         H            0.703234118556    -2.213767205515    -0.000226952130     1.007825032230
         H            0.685810118556     2.676801794485    -0.883230952130     1.007825032230
         H           -0.773444881444     3.129297794485     0.000220047870     1.007825032230
         H            0.685838118556     2.676696794485     0.883576047870     1.007825032230
         H           -3.343361881444    -0.726282205515     0.000235047870     1.007825032230
         H           -1.762686881444    -2.654298205515    -0.000047952130     1.007825032230
         H            2.340677418556     1.183437994485    -0.000176252130     1.007825032230

  Basis Set: AUG-CC-PVTZ
    Blend: AUG-CC-PVTZ
  Basis Set: (AUG-CC-PVTZ AUX)
    Blend: AUG-CC-PVTZ-JKFIT
	 Reference Energy          =    -382.5917154715234574 [Eh]
	 Singles Energy            =      -0.0000000000000000 [Eh]
	 Same-Spin Energy          =      -0.4087200194705811 [Eh]
	 Opposite-Spin Energy      =      -1.2875932985428797 [Eh]
	 Correlation Energy        =      -1.6963133180134609 [Eh]
	 Total Energy              =    -384.2880287895368951 [Eh]

	 ================> DF-SCS-MP2 Energies <==================
	-----------------------------------------------------------
	 SCS Same-Spin Scale       =       0.3333333333333333 [-]
	 SCS Opposite-Spin Scale   =       1.2000000000000000 [-]
	 SCS Same-Spin Energy      =      -0.1362400064901937 [Eh]
	 SCS Opposite-Spin Energy  =      -1.5451119582514556 [Eh]
	 SCS Correlation Energy    =      -1.6813519647416493 [Eh]
	 SCS Total Energy          =    -384.2730674362650802 [Eh]
	-----------------------------------------------------------

  Dipole Moment: [D]
     X:    -2.7403      Y:     1.8359      Z:     0.0003     Total:     3.2985

*** Psi4 exiting successfully. Buy a developer a beer!
