                               Psi4 1.4a3.dev225

  ==> Input File <==

--------------------------------------------------------------------------
#psi4
#
memory 32 gb

molecule  {
0 1
  O        2.7820080    -0.8809860    -0.0002600
  C       -0.3718440     0.9737870     0.0000910
  C        0.5095440    -0.1275560    -0.0000600
  C       -1.7466600     0.7087270     0.0002000
  C        0.0166350    -1.4400920    -0.0001140
  C        0.1123110     2.4052290     0.0001630
  C       -2.3092497    -0.7843763     0.0001383
  C       -1.3536090    -1.6782430    -0.0000090
  C        1.9816290     0.0523060    -0.0001740
  H       -2.4458080     1.5430760     0.0003180
  H        0.7339320    -2.2568560    -0.0002320
  H        0.7165080     2.6337130    -0.8832360
  H       -0.7427470     3.0862090     0.0002150
  H        0.7165360     2.6336080     0.8835710
  H       -3.3126640    -0.7693710     0.0002300
  H       -1.7319890    -2.6973870    -0.0000530
  H        2.3545140     1.0932780    -0.0001810
units angstrom
no_reorient  #important for SAPT in psi4, default
symmetry c1  #important for SAPT in psi4, default
}

set PROPERTIES_ORIGIN ["COM"]
properties('MP2/aug-cc-pvtz', properties = ['dipole'])
--------------------------------------------------------------------------

    Molecular point group: c1
  Charge       = 0
  Multiplicity = 1
  Basis Set: AUG-CC-PVTZ
    Blend: AUG-CC-PVTZ
  Basis Set: (AUG-CC-PVTZ AUX)
    Blend: AUG-CC-PVTZ-JKFIT

    Orbital Energies [Eh]
    ---------------------

    Doubly Occupied:

       1A    -20.553407     2A    -11.335985     3A    -11.264555
       4A    -11.259788     5A    -11.258284     6A    -11.258112
       7A    -11.251822     8A    -11.241628     9A    -11.239027
      10A     -1.377934    11A     -1.166219    12A     -1.076100
      13A     -1.028141    14A     -0.946246    15A     -0.903087
      16A     -0.815537    17A     -0.792694    18A     -0.705234
      19A     -0.695033    20A     -0.645979    21A     -0.615909
      22A     -0.607073    23A     -0.594778    24A     -0.579587
      25A     -0.567957    26A     -0.538643    27A     -0.528294
      28A     -0.489016    29A     -0.470378    30A     -0.425667
      31A     -0.361702    32A     -0.328782

  @DF-RHF Final Energy:  -382.55195097745838

   => Energetics <=

    Nuclear Repulsion Energy =            400.0984175793041118
    One-Electron Energy =               -1311.4555402994885753
    Two-Electron Energy =                 528.8051717427259746
    Total Energy =                       -382.5519509774584321
  Basis Set: (AUG-CC-PVTZ AUX)
    Blend: AUG-CC-PVTZ-RI
    Molecular point group: c1

    Geometry (in Angstrom), charge = 0, multiplicity = 1:

       Center              X                  Y                   Z               Mass
    ------------   -----------------  -----------------  -----------------  -----------------
         O            2.758500152775    -0.818795501336    -0.000254185017    15.994914619570
         C           -0.395351847225     1.035977498664     0.000096814983    12.000000000000
         C            0.486036152775    -0.065365501336    -0.000054185017    12.000000000000
         C           -1.770167847225     0.770917498664     0.000205814983    12.000000000000
         C           -0.006872847225    -1.377901501336    -0.000108185017    12.000000000000
         C            0.088803152775     2.467419498664     0.000168814983    12.000000000000
         C           -2.332757547225    -0.722185801336     0.000144114983    12.000000000000
         C           -1.377116847225    -1.616052501336    -0.000003185017    12.000000000000
         C            1.958121152775     0.114496498664    -0.000168185017    12.000000000000
         H           -2.469315847225     1.605266498664     0.000323814983     1.007825032230
         H            0.710424152775    -2.194665501336    -0.000226185017     1.007825032230
         H            0.693000152775     2.695903498664    -0.883230185017     1.007825032230
         H           -0.766254847225     3.148399498664     0.000220814983     1.007825032230
         H            0.693028152775     2.695798498664     0.883576814983     1.007825032230
         H           -3.336171847225    -0.707180501336     0.000235814983     1.007825032230
         H           -1.755496847225    -2.635196501336    -0.000047185017     1.007825032230
         H            2.331006152775     1.155468498664    -0.000175185017     1.007825032230

  Basis Set: AUG-CC-PVTZ
    Blend: AUG-CC-PVTZ
  Basis Set: (AUG-CC-PVTZ AUX)
    Blend: AUG-CC-PVTZ-JKFIT
	 Reference Energy          =    -382.5519509774583753 [Eh]
	 Singles Energy            =      -0.0000000000000000 [Eh]
	 Same-Spin Energy          =      -0.4083229267435353 [Eh]
	 Opposite-Spin Energy      =      -1.2900127736668687 [Eh]
	 Correlation Energy        =      -1.6983357004104040 [Eh]
	 Total Energy              =    -384.2502866778687576 [Eh]

	 ================> DF-SCS-MP2 Energies <==================
	-----------------------------------------------------------
	 SCS Same-Spin Scale       =       0.3333333333333333 [-]
	 SCS Opposite-Spin Scale   =       1.2000000000000000 [-]
	 SCS Same-Spin Energy      =      -0.1361076422478451 [Eh]
	 SCS Opposite-Spin Energy  =      -1.5480153284002425 [Eh]
	 SCS Correlation Energy    =      -1.6841229706480876 [Eh]
	 SCS Total Energy          =    -384.2360739481064797 [Eh]
	-----------------------------------------------------------

  Dipole Moment: [D]
     X:    -2.7037      Y:     1.8671      Z:     0.0003     Total:     3.2857

*** Psi4 exiting successfully. Buy a developer a beer!
