                               Psi4 1.4a3.dev225

  ==> Input File <==

--------------------------------------------------------------------------
#psi4
#
memory 32 gb

molecule  {
0 1
  O        2.7820080    -0.8809860    -0.0002600
  C       -0.3718440     0.9737870     0.0000910
  C        0.5095440    -0.1275560    -0.0000600
  C       -1.7466600     0.7087270     0.0002000
  C        0.0166350    -1.4400920    -0.0001140
  C        0.1123110     2.4052290     0.0001630
  C       -2.2387310    -0.5972210     0.0001460
  C       -1.3536090    -1.6782430    -0.0000090
  C        1.9816290     0.0523060    -0.0001740
  H       -2.4458080     1.5430760     0.0003180
  H        0.7339320    -2.2568560    -0.0002320
  H        0.7165080     2.6337130    -0.8832360
  H       -0.7427470     3.0862090     0.0002150
  H        0.7165360     2.6336080     0.8835710
  H       -3.2929161    -0.7662054     0.0002285
  H       -1.7319890    -2.6973870    -0.0000530
  H        2.3545140     1.0932780    -0.0001810
units angstrom
no_reorient  #important for SAPT in psi4, default
symmetry c1  #important for SAPT in psi4, default
}

set PROPERTIES_ORIGIN ["COM"]
properties('MP2/aug-cc-pvtz', properties = ['dipole'])
--------------------------------------------------------------------------

    Molecular point group: c1
  Charge       = 0
  Multiplicity = 1
  Basis Set: AUG-CC-PVTZ
    Blend: AUG-CC-PVTZ
  Basis Set: (AUG-CC-PVTZ AUX)
    Blend: AUG-CC-PVTZ-JKFIT

    Orbital Energies [Eh]
    ---------------------

    Doubly Occupied:

       1A    -20.552053     2A    -11.334825     3A    -11.269994
       4A    -11.255267     5A    -11.252142     6A    -11.248667
       7A    -11.245482     8A    -11.244173     9A    -11.243719
      10A     -1.376788    11A     -1.171977    12A     -1.065531
      13A     -1.040148    14A     -0.955173    15A     -0.890863
      16A     -0.821877    17A     -0.787781    18A     -0.709033
      19A     -0.674573    20A     -0.646518    21A     -0.618522
      22A     -0.609608    23A     -0.597469    24A     -0.585554
      25A     -0.558707    26A     -0.538358    27A     -0.520035
      28A     -0.502390    29A     -0.491430    30A     -0.425465
      31A     -0.348909    32A     -0.342633

  @DF-RHF Final Energy:  -382.59438758349194

   => Energetics <=

    Nuclear Repulsion Energy =            402.0546239870111549
    One-Electron Energy =               -1315.4466966694515122
    Two-Electron Energy =                 530.7976850989483637
    Total Energy =                       -382.5943875834919936
  Basis Set: (AUG-CC-PVTZ AUX)
    Blend: AUG-CC-PVTZ-RI
    Molecular point group: c1

    Geometry (in Angstrom), charge = 0, multiplicity = 1:

       Center              X                  Y                   Z               Mass
    ------------   -----------------  -----------------  -----------------  -----------------
         O            2.751285886939    -0.837528639143    -0.000254942057    15.994914619570
         C           -0.402566113061     1.017244360857     0.000096057943    12.000000000000
         C            0.478821886939    -0.084098639143    -0.000054942057    12.000000000000
         C           -1.777382113061     0.752184360857     0.000205057943    12.000000000000
         C           -0.014087113061    -1.396634639143    -0.000108942057    12.000000000000
         C            0.081588886939     2.448686360857     0.000168057943    12.000000000000
         C           -2.269453113061    -0.553763639143     0.000151057943    12.000000000000
         C           -1.384331113061    -1.634785639143    -0.000003942057    12.000000000000
         C            1.950906886939     0.095763360857    -0.000168942057    12.000000000000
         H           -2.476530113061     1.586533360857     0.000323057943     1.007825032230
         H            0.703209886939    -2.213398639143    -0.000226942057     1.007825032230
         H            0.685785886939     2.677170360857    -0.883230942057     1.007825032230
         H           -0.773469113061     3.129666360857     0.000220057943     1.007825032230
         H            0.685813886939     2.677065360857     0.883576057943     1.007825032230
         H           -3.323638213061    -0.722748039143     0.000233557943     1.007825032230
         H           -1.762711113061    -2.653929639143    -0.000047942057     1.007825032230
         H            2.323791886939     1.136735360857    -0.000175942057     1.007825032230

  Basis Set: AUG-CC-PVTZ
    Blend: AUG-CC-PVTZ
  Basis Set: (AUG-CC-PVTZ AUX)
    Blend: AUG-CC-PVTZ-JKFIT
	 Reference Energy          =    -382.5943875834919368 [Eh]
	 Singles Energy            =      -0.0000000000000000 [Eh]
	 Same-Spin Energy          =      -0.4084298653638196 [Eh]
	 Opposite-Spin Energy      =      -1.2868718028909223 [Eh]
	 Correlation Energy        =      -1.6953016682547419 [Eh]
	 Total Energy              =    -384.2896892517466654 [Eh]

	 ================> DF-SCS-MP2 Energies <==================
	-----------------------------------------------------------
	 SCS Same-Spin Scale       =       0.3333333333333333 [-]
	 SCS Opposite-Spin Scale   =       1.2000000000000000 [-]
	 SCS Same-Spin Energy      =      -0.1361432884546065 [Eh]
	 SCS Opposite-Spin Energy  =      -1.5442461634691067 [Eh]
	 SCS Correlation Energy    =      -1.6803894519237133 [Eh]
	 SCS Total Energy          =    -384.2747770354156387 [Eh]
	-----------------------------------------------------------

  Dipole Moment: [D]
     X:    -2.7232      Y:     1.8847      Z:     0.0003     Total:     3.3118

*** Psi4 exiting successfully. Buy a developer a beer!
