                               Psi4 1.4a3.dev225

  ==> Input File <==

--------------------------------------------------------------------------
#psi4
#
memory 32 gb

molecule  {
0 1
  O        2.7820080    -0.8809860    -0.0002600
  C       -0.3718440     0.9737870     0.0000910
  C        0.5095440    -0.1275560    -0.0000600
  C       -1.7618007     0.8052750     0.0002094
  C        0.0166350    -1.4400920    -0.0001140
  C        0.1123110     2.4052290     0.0001630
  C       -2.2387310    -0.5972210     0.0001460
  C       -1.3536090    -1.6782430    -0.0000090
  C        1.9816290     0.0523060    -0.0001740
  H       -2.4458080     1.5430760     0.0003180
  H        0.7339320    -2.2568560    -0.0002320
  H        0.7165080     2.6337130    -0.8832360
  H       -0.7427470     3.0862090     0.0002150
  H        0.7165360     2.6336080     0.8835710
  H       -3.3126640    -0.7693710     0.0002300
  H       -1.7319890    -2.6973870    -0.0000530
  H        2.3545140     1.0932780    -0.0001810
units angstrom
no_reorient  #important for SAPT in psi4, default
symmetry c1  #important for SAPT in psi4, default
}

set PROPERTIES_ORIGIN ["COM"]
properties('MP2/aug-cc-pvtz', properties = ['dipole'])
--------------------------------------------------------------------------

    Molecular point group: c1
  Charge       = 0
  Multiplicity = 1
  Basis Set: AUG-CC-PVTZ
    Blend: AUG-CC-PVTZ
  Basis Set: (AUG-CC-PVTZ AUX)
    Blend: AUG-CC-PVTZ-JKFIT

    Orbital Energies [Eh]
    ---------------------

    Doubly Occupied:

       1A    -20.551189     2A    -11.335116     3A    -11.270627
       4A    -11.267780     5A    -11.256371     6A    -11.248979
       7A    -11.247335     8A    -11.245380     9A    -11.240742
      10A     -1.376291    11A     -1.166547    12A     -1.065280
      13A     -1.035572    14A     -0.952187    15A     -0.890054
      16A     -0.824461    17A     -0.790150    18A     -0.706449
      19A     -0.673237    20A     -0.655435    21A     -0.617138
      22A     -0.612918    23A     -0.595679    24A     -0.587228
      25A     -0.560313    26A     -0.537612    27A     -0.520301
      28A     -0.496108    29A     -0.486404    30A     -0.425256
      31A     -0.346451    32A     -0.341604

  @DF-RHF Final Energy:  -382.58119599857082

   => Energetics <=

    Nuclear Repulsion Energy =            400.7860278420704958
    One-Electron Energy =               -1312.8820608418322990
    Two-Electron Energy =                 529.5148370011909265
    Total Energy =                       -382.5811959985708199
  Basis Set: (AUG-CC-PVTZ AUX)
    Blend: AUG-CC-PVTZ-RI
    Molecular point group: c1

    Geometry (in Angstrom), charge = 0, multiplicity = 1:

       Center              X                  Y                   Z               Mass
    ------------   -----------------  -----------------  -----------------  -----------------
         O            2.752965005719    -0.847152240217    -0.000255894198    15.994914619570
         C           -0.400886994281     1.007620759783     0.000095105802    12.000000000000
         C            0.480501005719    -0.093722240217    -0.000055894198    12.000000000000
         C           -1.790843694281     0.839108759783     0.000213505802    12.000000000000
         C           -0.012407994281    -1.406258240217    -0.000109894198    12.000000000000
         C            0.083268005719     2.439062759783     0.000167105802    12.000000000000
         C           -2.267773994281    -0.563387240217     0.000150105802    12.000000000000
         C           -1.382651994281    -1.644409240217    -0.000004894198    12.000000000000
         C            1.952586005719     0.086139759783    -0.000169894198    12.000000000000
         H           -2.474850994281     1.576909759783     0.000322105802     1.007825032230
         H            0.704889005719    -2.223022240217    -0.000227894198     1.007825032230
         H            0.687465005719     2.667546759783    -0.883231894198     1.007825032230
         H           -0.771789994281     3.120042759783     0.000219105802     1.007825032230
         H            0.687493005719     2.667441759783     0.883575105802     1.007825032230
         H           -3.341706994281    -0.735537240217     0.000234105802     1.007825032230
         H           -1.761031994281    -2.663553240217    -0.000048894198     1.007825032230
         H            2.325471005719     1.127111759783    -0.000176894198     1.007825032230

  Basis Set: AUG-CC-PVTZ
    Blend: AUG-CC-PVTZ
  Basis Set: (AUG-CC-PVTZ AUX)
    Blend: AUG-CC-PVTZ-JKFIT
	 Reference Energy          =    -382.5811959985708199 [Eh]
	 Singles Energy            =      -0.0000000000000000 [Eh]
	 Same-Spin Energy          =      -0.4083100216637897 [Eh]
	 Opposite-Spin Energy      =      -1.2878031980569231 [Eh]
	 Correlation Energy        =      -1.6961132197207127 [Eh]
	 Total Energy              =    -384.2773092182915207 [Eh]

	 ================> DF-SCS-MP2 Energies <==================
	-----------------------------------------------------------
	 SCS Same-Spin Scale       =       0.3333333333333333 [-]
	 SCS Opposite-Spin Scale   =       1.2000000000000000 [-]
	 SCS Same-Spin Energy      =      -0.1361033405545966 [Eh]
	 SCS Opposite-Spin Energy  =      -1.5453638376683076 [Eh]
	 SCS Correlation Energy    =      -1.6814671782229043 [Eh]
	 SCS Total Energy          =    -384.2626631767937511 [Eh]
	-----------------------------------------------------------

  Dipole Moment: [D]
     X:    -2.7493      Y:     1.8585      Z:     0.0003     Total:     3.3185

*** Psi4 exiting successfully. Buy a developer a beer!
