                               Psi4 1.4a3.dev225

  ==> Input File <==

--------------------------------------------------------------------------
#psi4
#
memory 32 gb

molecule  {
0 1
  O        2.7820080    -0.8809860    -0.0002600
  C       -0.3718440     0.9737870     0.0000910
  C        0.5095440    -0.1275560    -0.0000600
  C       -1.7466600     0.7087270     0.0002000
  C        0.0166350    -1.4400920    -0.0001140
  C        0.1123110     2.4052290     0.0001630
  C       -2.2457829    -0.6159365     0.0001452
  C       -1.3536090    -1.6782430    -0.0000090
  C        1.9816290     0.0523060    -0.0001740
  H       -2.4458080     1.5430760     0.0003180
  H        0.7339320    -2.2568560    -0.0002320
  H        0.7165080     2.6337130    -0.8832360
  H       -0.7427470     3.0862090     0.0002150
  H        0.7165360     2.6336080     0.8835710
  H       -3.3126640    -0.7693710     0.0002300
  H       -1.7319890    -2.6973870    -0.0000530
  H        2.3545140     1.0932780    -0.0001810
units angstrom
no_reorient  #important for SAPT in psi4, default
symmetry c1  #important for SAPT in psi4, default
}

set PROPERTIES_ORIGIN ["COM"]
properties('MP2/aug-cc-pvtz', properties = ['dipole'])
--------------------------------------------------------------------------

    Molecular point group: c1
  Charge       = 0
  Multiplicity = 1
  Basis Set: AUG-CC-PVTZ
    Blend: AUG-CC-PVTZ
  Basis Set: (AUG-CC-PVTZ AUX)
    Blend: AUG-CC-PVTZ-JKFIT

    Orbital Energies [Eh]
    ---------------------

    Doubly Occupied:

       1A    -20.552184     2A    -11.334957     3A    -11.269517
       4A    -11.257933     5A    -11.252906     6A    -11.248974
       7A    -11.247452     8A    -11.243706     9A    -11.243561
      10A     -1.376908    11A     -1.171071    12A     -1.066351
      13A     -1.038045    14A     -0.954470    15A     -0.891385
      16A     -0.820951    17A     -0.787655    18A     -0.708316
      19A     -0.674856    20A     -0.645422    21A     -0.617442
      22A     -0.609631    23A     -0.597226    24A     -0.585143
      25A     -0.559292    26A     -0.538394    27A     -0.520088
      28A     -0.501567    29A     -0.490967    30A     -0.425543
      31A     -0.347598    32A     -0.343431

  @DF-RHF Final Energy:  -382.59361327078517

   => Energetics <=

    Nuclear Repulsion Energy =            401.7497588323556670
    One-Electron Energy =               -1314.8408568728950740
    Two-Electron Energy =                 530.4974847697542373
    Total Energy =                       -382.5936132707852266
  Basis Set: (AUG-CC-PVTZ AUX)
    Blend: AUG-CC-PVTZ-RI
    Molecular point group: c1

    Geometry (in Angstrom), charge = 0, multiplicity = 1:

       Center              X                  Y                   Z               Mass
    ------------   -----------------  -----------------  -----------------  -----------------
         O            2.752156513222    -0.835631412042    -0.000254874687    15.994914619570
         C           -0.401695486778     1.019141587958     0.000096125313    12.000000000000
         C            0.479692513222    -0.082201412042    -0.000054874687    12.000000000000
         C           -1.776511486778     0.754081587958     0.000205125313    12.000000000000
         C           -0.013216486778    -1.394737412042    -0.000108874687    12.000000000000
         C            0.082459513222     2.450583587958     0.000168125313    12.000000000000
         C           -2.275634386778    -0.570581912042     0.000150325313    12.000000000000
         C           -1.383460486778    -1.632888412042    -0.000003874687    12.000000000000
         C            1.951777513222     0.097660587958    -0.000168874687    12.000000000000
         H           -2.475659486778     1.588430587958     0.000323125313     1.007825032230
         H            0.704080513222    -2.211501412042    -0.000226874687     1.007825032230
         H            0.686656513222     2.679067587958    -0.883230874687     1.007825032230
         H           -0.772598486778     3.131563587958     0.000220125313     1.007825032230
         H            0.686684513222     2.678962587958     0.883576125313     1.007825032230
         H           -3.342515486778    -0.724016412042     0.000235125313     1.007825032230
         H           -1.761840486778    -2.652032412042    -0.000047874687     1.007825032230
         H            2.324662513222     1.138632587958    -0.000175874687     1.007825032230

  Basis Set: AUG-CC-PVTZ
    Blend: AUG-CC-PVTZ
  Basis Set: (AUG-CC-PVTZ AUX)
    Blend: AUG-CC-PVTZ-JKFIT
	 Reference Energy          =    -382.5936132707851698 [Eh]
	 Singles Energy            =      -0.0000000000000000 [Eh]
	 Same-Spin Energy          =      -0.4084737927750701 [Eh]
	 Opposite-Spin Energy      =      -1.2871110294034338 [Eh]
	 Correlation Energy        =      -1.6955848221785039 [Eh]
	 Total Energy              =    -384.2891980929636588 [Eh]

	 ================> DF-SCS-MP2 Energies <==================
	-----------------------------------------------------------
	 SCS Same-Spin Scale       =       0.3333333333333333 [-]
	 SCS Opposite-Spin Scale   =       1.2000000000000000 [-]
	 SCS Same-Spin Energy      =      -0.1361579309250234 [Eh]
	 SCS Opposite-Spin Energy  =      -1.5445332352841206 [Eh]
	 SCS Correlation Energy    =      -1.6806911662091439 [Eh]
	 SCS Total Energy          =    -384.2743044369943277 [Eh]
	-----------------------------------------------------------

  Dipole Moment: [D]
     X:    -2.7176      Y:     1.8857      Z:     0.0003     Total:     3.3078

*** Psi4 exiting successfully. Buy a developer a beer!
