                               Psi4 1.4a3.dev225

  ==> Input File <==

--------------------------------------------------------------------------
#psi4
#
memory 32 gb

molecule  {
0 1
  O        2.7820080    -0.8809860    -0.0002600
  C       -0.3718440     0.9737870     0.0000910
  C        0.5095440    -0.1275560    -0.0000600
  C       -1.7466600     0.7087270     0.0002000
  C        0.0166350    -1.4400920    -0.0001140
  C        0.1123110     2.4052290     0.0001630
  C       -2.2387310    -0.5972210     0.0001460
  C       -1.3536090    -1.6782430    -0.0000090
  C        1.9816290     0.0523060    -0.0001740
  H       -2.4458080     1.5430760     0.0003180
  H        0.7339320    -2.2568560    -0.0002320
  H        0.7165080     2.6337130    -0.8832360
  H       -0.7036352     3.0550598     0.0002126
  H        0.7165360     2.6336080     0.8835710
  H       -3.3126640    -0.7693710     0.0002300
  H       -1.7319890    -2.6973870    -0.0000530
  H        2.3545140     1.0932780    -0.0001810
units angstrom
no_reorient  #important for SAPT in psi4, default
symmetry c1  #important for SAPT in psi4, default
}

set PROPERTIES_ORIGIN ["COM"]
properties('MP2/aug-cc-pvtz', properties = ['dipole'])
--------------------------------------------------------------------------

    Molecular point group: c1
  Charge       = 0
  Multiplicity = 1
  Basis Set: AUG-CC-PVTZ
    Blend: AUG-CC-PVTZ
  Basis Set: (AUG-CC-PVTZ AUX)
    Blend: AUG-CC-PVTZ-JKFIT

    Orbital Energies [Eh]
    ---------------------

    Doubly Occupied:

       1A    -20.551854     2A    -11.334594     3A    -11.269732
       4A    -11.257540     5A    -11.252100     6A    -11.248388
       7A    -11.245614     8A    -11.244208     9A    -11.237776
      10A     -1.376599    11A     -1.171945    12A     -1.066337
      13A     -1.039973    14A     -0.958692    15A     -0.889801
      16A     -0.822859    17A     -0.786985    18A     -0.708416
      19A     -0.675027    20A     -0.644795    21A     -0.619362
      22A     -0.609252    23A     -0.597008    24A     -0.585436
      25A     -0.567021    26A     -0.538143    27A     -0.518927
      28A     -0.502549    29A     -0.491369    30A     -0.425304
      31A     -0.348853    32A     -0.342567

  @DF-RHF Final Energy:  -382.59337168005766

   => Energetics <=

    Nuclear Repulsion Energy =            402.1807660616727844
    One-Electron Energy =               -1315.6902233356865963
    Two-Electron Energy =                 530.9160855939561543
    Total Energy =                       -382.5933716800576576
  Basis Set: (AUG-CC-PVTZ AUX)
    Blend: AUG-CC-PVTZ-RI
    Molecular point group: c1

    Geometry (in Angstrom), charge = 0, multiplicity = 1:

       Center              X                  Y                   Z               Mass
    ------------   -----------------  -----------------  -----------------  -----------------
         O            2.751123336321    -0.837240582919    -0.000254934502    15.994914619570
         C           -0.402728663679     1.017532417081     0.000096065498    12.000000000000
         C            0.478659336321    -0.083810582919    -0.000054934502    12.000000000000
         C           -1.777544663679     0.752472417081     0.000205065498    12.000000000000
         C           -0.014249663679    -1.396346582919    -0.000108934502    12.000000000000
         C            0.081426336321     2.448974417081     0.000168065498    12.000000000000
         C           -2.269615663679    -0.553475582919     0.000151065498    12.000000000000
         C           -1.384493663679    -1.634497582919    -0.000003934502    12.000000000000
         C            1.950744336321     0.096051417081    -0.000168934502    12.000000000000
         H           -2.476692663679     1.586821417081     0.000323065498     1.007825032230
         H            0.703047336321    -2.213110582919    -0.000226934502     1.007825032230
         H            0.685623336321     2.677458417081    -0.883230934502     1.007825032230
         H           -0.734519863679     3.098805217081     0.000217665498     1.007825032230
         H            0.685651336321     2.677353417081     0.883576065498     1.007825032230
         H           -3.343548663679    -0.725625582919     0.000235065498     1.007825032230
         H           -1.762873663679    -2.653641582919    -0.000047934502     1.007825032230
         H            2.323629336321     1.137023417081    -0.000175934502     1.007825032230

  Basis Set: AUG-CC-PVTZ
    Blend: AUG-CC-PVTZ
  Basis Set: (AUG-CC-PVTZ AUX)
    Blend: AUG-CC-PVTZ-JKFIT
	 Reference Energy          =    -382.5933716800576576 [Eh]
	 Singles Energy            =      -0.0000000000000000 [Eh]
	 Same-Spin Energy          =      -0.4084357085258996 [Eh]
	 Opposite-Spin Energy      =      -1.2866500715491913 [Eh]
	 Correlation Energy        =      -1.6950857800750909 [Eh]
	 Total Energy              =    -384.2884574601327472 [Eh]

	 ================> DF-SCS-MP2 Energies <==================
	-----------------------------------------------------------
	 SCS Same-Spin Scale       =       0.3333333333333333 [-]
	 SCS Opposite-Spin Scale   =       1.2000000000000000 [-]
	 SCS Same-Spin Energy      =      -0.1361452361752999 [Eh]
	 SCS Opposite-Spin Energy  =      -1.5439800858590296 [Eh]
	 SCS Correlation Energy    =      -1.6801253220343295 [Eh]
	 SCS Total Energy          =    -384.2734970020919718 [Eh]
	-----------------------------------------------------------

  Dipole Moment: [D]
     X:    -2.7280      Y:     1.9113      Z:     0.0003     Total:     3.3310

*** Psi4 exiting successfully. Buy a developer a beer!
