                               Psi4 1.4a3.dev225

  ==> Input File <==

--------------------------------------------------------------------------
#psi4
#
memory 32 gb

molecule  {
0 1
  O        2.7820080    -0.8809860    -0.0002600
  C       -0.3718440     0.9737870     0.0000910
  C        0.5095440    -0.1275560    -0.0000600
  C       -1.7466600     0.7087270     0.0002000
  C        0.0166350    -1.4400920    -0.0001140
  C        0.1123110     2.4052290     0.0001630
  C       -2.2563607    -0.6440098     0.0001441
  C       -1.3536090    -1.6782430    -0.0000090
  C        1.9816290     0.0523060    -0.0001740
  H       -2.4458080     1.5430760     0.0003180
  H        0.7339320    -2.2568560    -0.0002320
  H        0.7165080     2.6337130    -0.8832360
  H       -0.7427470     3.0862090     0.0002150
  H        0.7165360     2.6336080     0.8835710
  H       -3.3126640    -0.7693710     0.0002300
  H       -1.7319890    -2.6973870    -0.0000530
  H        2.3545140     1.0932780    -0.0001810
units angstrom
no_reorient  #important for SAPT in psi4, default
symmetry c1  #important for SAPT in psi4, default
}

set PROPERTIES_ORIGIN ["COM"]
properties('MP2/aug-cc-pvtz', properties = ['dipole'])
--------------------------------------------------------------------------

    Molecular point group: c1
  Charge       = 0
  Multiplicity = 1
  Basis Set: AUG-CC-PVTZ
    Blend: AUG-CC-PVTZ
  Basis Set: (AUG-CC-PVTZ AUX)
    Blend: AUG-CC-PVTZ-JKFIT

    Orbital Energies [Eh]
    ---------------------

    Doubly Occupied:

       1A    -20.552330     2A    -11.335094     3A    -11.268637
       4A    -11.258348     5A    -11.253857     6A    -11.249934
       7A    -11.249365     8A    -11.243223     9A    -11.242761
      10A     -1.377033    11A     -1.169874    12A     -1.067895
      13A     -1.035607    14A     -0.953199    15A     -0.893472
      16A     -0.819703    17A     -0.788470    18A     -0.707873
      19A     -0.677108    20A     -0.645896    21A     -0.616008
      22A     -0.609930    23A     -0.596776    24A     -0.584286
      25A     -0.560601    26A     -0.538379    27A     -0.522267
      28A     -0.498722    29A     -0.490274    30A     -0.425606
      31A     -0.348552    32A     -0.341702

  @DF-RHF Final Energy:  -382.59091231604623

   => Energetics <=

    Nuclear Repulsion Energy =            401.4548495494956342
    One-Electron Energy =               -1314.2459574553950006
    Two-Electron Energy =                 530.2001955898531378
    Total Energy =                       -382.5909123160462286
  Basis Set: (AUG-CC-PVTZ AUX)
    Blend: AUG-CC-PVTZ-RI
    Molecular point group: c1

    Geometry (in Angstrom), charge = 0, multiplicity = 1:

       Center              X                  Y                   Z               Mass
    ------------   -----------------  -----------------  -----------------  -----------------
         O            2.753213786481    -0.832825426924    -0.000254764739    15.994914619570
         C           -0.400638213519     1.021947573076     0.000096235261    12.000000000000
         C            0.480749786481    -0.079395426924    -0.000054764739    12.000000000000
         C           -1.775454213519     0.756887573076     0.000205235261    12.000000000000
         C           -0.012159213519    -1.391931426924    -0.000108764739    12.000000000000
         C            0.083516786481     2.453389573076     0.000168235261    12.000000000000
         C           -2.285154913519    -0.595849226924     0.000149335261    12.000000000000
         C           -1.382403213519    -1.630082426924    -0.000003764739    12.000000000000
         C            1.952834786481     0.100466573076    -0.000168764739    12.000000000000
         H           -2.474602213519     1.591236573076     0.000323235261     1.007825032230
         H            0.705137786481    -2.208695426924    -0.000226764739     1.007825032230
         H            0.687713786481     2.681873573076    -0.883230764739     1.007825032230
         H           -0.771541213519     3.134369573076     0.000220235261     1.007825032230
         H            0.687741786481     2.681768573076     0.883576235261     1.007825032230
         H           -3.341458213519    -0.721210426924     0.000235235261     1.007825032230
         H           -1.760783213519    -2.649226426924    -0.000047764739     1.007825032230
         H            2.325719786481     1.141438573076    -0.000175764739     1.007825032230

  Basis Set: AUG-CC-PVTZ
    Blend: AUG-CC-PVTZ
  Basis Set: (AUG-CC-PVTZ AUX)
    Blend: AUG-CC-PVTZ-JKFIT
	 Reference Energy          =    -382.5909123160462286 [Eh]
	 Singles Energy            =      -0.0000000000000000 [Eh]
	 Same-Spin Energy          =      -0.4084651901638782 [Eh]
	 Opposite-Spin Energy      =      -1.2873479717104503 [Eh]
	 Correlation Energy        =      -1.6958131618743284 [Eh]
	 Total Energy              =    -384.2867254779205837 [Eh]

	 ================> DF-SCS-MP2 Energies <==================
	-----------------------------------------------------------
	 SCS Same-Spin Scale       =       0.3333333333333333 [-]
	 SCS Opposite-Spin Scale   =       1.2000000000000000 [-]
	 SCS Same-Spin Energy      =      -0.1361550633879594 [Eh]
	 SCS Opposite-Spin Energy  =      -1.5448175660525403 [Eh]
	 SCS Correlation Energy    =      -1.6809726294404996 [Eh]
	 SCS Total Energy          =    -384.2718849454867041 [Eh]
	-----------------------------------------------------------

  Dipole Moment: [D]
     X:    -2.7179      Y:     1.8848      Z:     0.0003     Total:     3.3075

*** Psi4 exiting successfully. Buy a developer a beer!
