                               Psi4 1.4a3.dev225

  ==> Input File <==

--------------------------------------------------------------------------
#psi4
#
memory 32 gb

molecule  {
0 1
  O        2.7820080    -0.8809860    -0.0002600
  C       -0.3718440     0.9737870     0.0000910
  C        0.5095440    -0.1275560    -0.0000600
  C       -1.7365720     0.6609081     0.0001951
  C        0.0166350    -1.4400920    -0.0001140
  C        0.1123110     2.4052290     0.0001630
  C       -2.2387310    -0.5972210     0.0001460
  C       -1.3536090    -1.6782430    -0.0000090
  C        1.9816290     0.0523060    -0.0001740
  H       -2.4458080     1.5430760     0.0003180
  H        0.7339320    -2.2568560    -0.0002320
  H        0.7165080     2.6337130    -0.8832360
  H       -0.7427470     3.0862090     0.0002150
  H        0.7165360     2.6336080     0.8835710
  H       -3.3126640    -0.7693710     0.0002300
  H       -1.7319890    -2.6973870    -0.0000530
  H        2.3545140     1.0932780    -0.0001810
units angstrom
no_reorient  #important for SAPT in psi4, default
symmetry c1  #important for SAPT in psi4, default
}

set PROPERTIES_ORIGIN ["COM"]
properties('MP2/aug-cc-pvtz', properties = ['dipole'])
--------------------------------------------------------------------------

    Molecular point group: c1
  Charge       = 0
  Multiplicity = 1
  Basis Set: AUG-CC-PVTZ
    Blend: AUG-CC-PVTZ
  Basis Set: (AUG-CC-PVTZ AUX)
    Blend: AUG-CC-PVTZ-JKFIT

    Orbital Energies [Eh]
    ---------------------

    Doubly Occupied:

       1A    -20.552640     2A    -11.334833     3A    -11.270378
       4A    -11.252216     5A    -11.250508     6A    -11.248717
       7A    -11.245376     8A    -11.245036     9A    -11.243980
      10A     -1.377193    11A     -1.175621    12A     -1.066889
      13A     -1.041632    14A     -0.956709    15A     -0.890491
      16A     -0.822567    17A     -0.784518    18A     -0.709896
      19A     -0.674303    20A     -0.644713    21A     -0.618388
      22A     -0.606193    23A     -0.598597    24A     -0.584365
      25A     -0.557091    26A     -0.539053    27A     -0.523023
      28A     -0.496660    29A     -0.494699    30A     -0.425510
      31A     -0.353062    32A     -0.341171

  @DF-RHF Final Energy:  -382.59109910447296

   => Energetics <=

    Nuclear Repulsion Energy =            402.5956873703319729
    One-Electron Energy =               -1316.5215207064782135
    Two-Electron Energy =                 531.3347342316733375
    Total Energy =                       -382.5910991044729599
  Basis Set: (AUG-CC-PVTZ AUX)
    Blend: AUG-CC-PVTZ-RI
    Molecular point group: c1

    Geometry (in Angstrom), charge = 0, multiplicity = 1:

       Center              X                  Y                   Z               Mass
    ------------   -----------------  -----------------  -----------------  -----------------
         O            2.750443344328    -0.832722466272    -0.000254464883    15.994914619570
         C           -0.403408655672     1.022050533728     0.000096535117    12.000000000000
         C            0.477979344328    -0.079292466272    -0.000054464883    12.000000000000
         C           -1.768136655672     0.709171633728     0.000200635117    12.000000000000
         C           -0.014929655672    -1.391828466272    -0.000108464883    12.000000000000
         C            0.080746344328     2.453492533728     0.000168535117    12.000000000000
         C           -2.270295655672    -0.548957466272     0.000151535117    12.000000000000
         C           -1.385173655672    -1.629979466272    -0.000003464883    12.000000000000
         C            1.950064344328     0.100569533728    -0.000168464883    12.000000000000
         H           -2.477372655672     1.591339533728     0.000323535117     1.007825032230
         H            0.702367344328    -2.208592466272    -0.000226464883     1.007825032230
         H            0.684943344328     2.681976533728    -0.883230464883     1.007825032230
         H           -0.774311655672     3.134472533728     0.000220535117     1.007825032230
         H            0.684971344328     2.681871533728     0.883576535117     1.007825032230
         H           -3.344228655672    -0.721107466272     0.000235535117     1.007825032230
         H           -1.763553655672    -2.649123466272    -0.000047464883     1.007825032230
         H            2.322949344328     1.141541533728    -0.000175464883     1.007825032230

  Basis Set: AUG-CC-PVTZ
    Blend: AUG-CC-PVTZ
  Basis Set: (AUG-CC-PVTZ AUX)
    Blend: AUG-CC-PVTZ-JKFIT
	 Reference Energy          =    -382.5910991044729599 [Eh]
	 Singles Energy            =      -0.0000000000000000 [Eh]
	 Same-Spin Energy          =      -0.4086400786300756 [Eh]
	 Opposite-Spin Energy      =      -1.2870949413332207 [Eh]
	 Correlation Energy        =      -1.6957350199632963 [Eh]
	 Total Energy              =    -384.2868341244362682 [Eh]

	 ================> DF-SCS-MP2 Energies <==================
	-----------------------------------------------------------
	 SCS Same-Spin Scale       =       0.3333333333333333 [-]
	 SCS Opposite-Spin Scale   =       1.2000000000000000 [-]
	 SCS Same-Spin Energy      =      -0.1362133595433585 [Eh]
	 SCS Opposite-Spin Energy  =      -1.5445139295998647 [Eh]
	 SCS Correlation Energy    =      -1.6807272891432232 [Eh]
	 SCS Total Energy          =    -384.2718263936162089 [Eh]
	-----------------------------------------------------------

  Dipole Moment: [D]
     X:    -2.6846      Y:     1.8881      Z:     0.0003     Total:     3.2821

*** Psi4 exiting successfully. Buy a developer a beer!
