                               Psi4 1.4a3.dev225

  ==> Input File <==

--------------------------------------------------------------------------
#psi4
#
memory 32 gb

molecule  {
0 1
  O        2.7820080    -0.8809860    -0.0002600
  C       -0.3718440     0.9737870     0.0000910
  C        0.5095440    -0.1275560    -0.0000600
  C       -1.7466600     0.7087270     0.0002000
  C        0.0166350    -1.4400920    -0.0001140
  C        0.1443508     2.4999573     0.0001678
  C       -2.2387310    -0.5972210     0.0001460
  C       -1.3536090    -1.6782430    -0.0000090
  C        1.9816290     0.0523060    -0.0001740
  H       -2.4458080     1.5430760     0.0003180
  H        0.7339320    -2.2568560    -0.0002320
  H        0.7165080     2.6337130    -0.8832360
  H       -0.7427470     3.0862090     0.0002150
  H        0.7165360     2.6336080     0.8835710
  H       -3.3126640    -0.7693710     0.0002300
  H       -1.7319890    -2.6973870    -0.0000530
  H        2.3545140     1.0932780    -0.0001810
units angstrom
no_reorient  #important for SAPT in psi4, default
symmetry c1  #important for SAPT in psi4, default
}

set PROPERTIES_ORIGIN ["COM"]
properties('MP2/aug-cc-pvtz', properties = ['dipole'])
--------------------------------------------------------------------------

    Molecular point group: c1
  Charge       = 0
  Multiplicity = 1
  Basis Set: AUG-CC-PVTZ
    Blend: AUG-CC-PVTZ
  Basis Set: (AUG-CC-PVTZ AUX)
    Blend: AUG-CC-PVTZ-JKFIT

    Orbital Energies [Eh]
    ---------------------

    Doubly Occupied:

       1A    -20.551871     2A    -11.334851     3A    -11.273425
       4A    -11.257374     5A    -11.251854     6A    -11.248656
       7A    -11.245595     8A    -11.244029     9A    -11.242423
      10A     -1.376677    11A     -1.168720    12A     -1.057384
      13A     -1.038367    14A     -0.958488    15A     -0.889476
      16A     -0.821897    17A     -0.786779    18A     -0.706615
      19A     -0.671957    20A     -0.641764    21A     -0.617858
      22A     -0.609163    23A     -0.608480    24A     -0.579670
      25A     -0.568534    26A     -0.541577    27A     -0.517203
      28A     -0.492865    29A     -0.489364    30A     -0.425492
      31A     -0.348636    32A     -0.344130

  @DF-RHF Final Energy:  -382.58726163420295

   => Energetics <=

    Nuclear Repulsion Energy =            400.3261161574597509
    One-Electron Energy =               -1312.0044082365277518
    Two-Electron Energy =                 529.0910304448650550
    Total Energy =                       -382.5872616342029460
  Basis Set: (AUG-CC-PVTZ AUX)
    Blend: AUG-CC-PVTZ-RI
    Molecular point group: c1

    Geometry (in Angstrom), charge = 0, multiplicity = 1:

       Center              X                  Y                   Z               Mass
    ------------   -----------------  -----------------  -----------------  -----------------
         O            2.748249215953    -0.846970357391    -0.000255434418    15.994914619570
         C           -0.405602784047     1.007802642609     0.000095565582    12.000000000000
         C            0.475785215953    -0.093540357391    -0.000055434418    12.000000000000
         C           -1.780418784047     0.742742642609     0.000204565582    12.000000000000
         C           -0.017123784047    -1.406076357391    -0.000109434418    12.000000000000
         C            0.110592015953     2.533972942609     0.000172365582    12.000000000000
         C           -2.272489784047    -0.563205357391     0.000150565582    12.000000000000
         C           -1.387367784047    -1.644227357391    -0.000004434418    12.000000000000
         C            1.947870215953     0.086321642609    -0.000169434418    12.000000000000
         H           -2.479566784047     1.577091642609     0.000322565582     1.007825032230
         H            0.700173215953    -2.222840357391    -0.000227434418     1.007825032230
         H            0.682749215953     2.667728642609    -0.883231434418     1.007825032230
         H           -0.776505784047     3.120224642609     0.000219565582     1.007825032230
         H            0.682777215953     2.667623642609     0.883575565582     1.007825032230
         H           -3.346422784047    -0.735355357391     0.000234565582     1.007825032230
         H           -1.765747784047    -2.663371357391    -0.000048434418     1.007825032230
         H            2.320755215953     1.127293642609    -0.000176434418     1.007825032230

  Basis Set: AUG-CC-PVTZ
    Blend: AUG-CC-PVTZ
  Basis Set: (AUG-CC-PVTZ AUX)
    Blend: AUG-CC-PVTZ-JKFIT
	 Reference Energy          =    -382.5872616342029460 [Eh]
	 Singles Energy            =      -0.0000000000000000 [Eh]
	 Same-Spin Energy          =      -0.4079598201659776 [Eh]
	 Opposite-Spin Energy      =      -1.2867982035465573 [Eh]
	 Correlation Energy        =      -1.6947580237125348 [Eh]
	 Total Energy              =    -384.2820196579154981 [Eh]

	 ================> DF-SCS-MP2 Energies <==================
	-----------------------------------------------------------
	 SCS Same-Spin Scale       =       0.3333333333333333 [-]
	 SCS Opposite-Spin Scale   =       1.2000000000000000 [-]
	 SCS Same-Spin Energy      =      -0.1359866067219925 [Eh]
	 SCS Opposite-Spin Energy  =      -1.5441578442558688 [Eh]
	 SCS Correlation Energy    =      -1.6801444509778614 [Eh]
	 SCS Total Energy          =    -384.2674060851808235 [Eh]
	-----------------------------------------------------------

  Dipole Moment: [D]
     X:    -2.7288      Y:     1.8642      Z:     0.0003     Total:     3.3048

*** Psi4 exiting successfully. Buy a developer a beer!
