                               Psi4 1.4a3.dev225

  ==> Input File <==

--------------------------------------------------------------------------
#psi4
#
memory 32 gb

molecule  {
0 1
  O        2.7820080    -0.8809860    -0.0002600
  C       -0.3718440     0.9737870     0.0000910
  C        0.5095440    -0.1275560    -0.0000600
  C       -1.8858644     0.7530083     0.0002159
  C        0.0166350    -1.4400920    -0.0001140
  C        0.1123110     2.4052290     0.0001630
  C       -2.2387310    -0.5972210     0.0001460
  C       -1.3536090    -1.6782430    -0.0000090
  C        1.9816290     0.0523060    -0.0001740
  H       -2.4458080     1.5430760     0.0003180
  H        0.7339320    -2.2568560    -0.0002320
  H        0.7165080     2.6337130    -0.8832360
  H       -0.7427470     3.0862090     0.0002150
  H        0.7165360     2.6336080     0.8835710
  H       -3.3126640    -0.7693710     0.0002300
  H       -1.7319890    -2.6973870    -0.0000530
  H        2.3545140     1.0932780    -0.0001810
units angstrom
no_reorient  #important for SAPT in psi4, default
symmetry c1  #important for SAPT in psi4, default
}

set PROPERTIES_ORIGIN ["COM"]
properties('MP2/aug-cc-pvtz', properties = ['dipole'])
--------------------------------------------------------------------------

    Molecular point group: c1
  Charge       = 0
  Multiplicity = 1
  Basis Set: AUG-CC-PVTZ
    Blend: AUG-CC-PVTZ
  Basis Set: (AUG-CC-PVTZ AUX)
    Blend: AUG-CC-PVTZ-JKFIT

    Orbital Energies [Eh]
    ---------------------

    Doubly Occupied:

       1A    -20.552657     2A    -11.335948     3A    -11.285745
       4A    -11.258975     5A    -11.253630     6A    -11.249628
       7A    -11.249107     8A    -11.244711     9A    -11.243880
      10A     -1.377506    11A     -1.161631    12A     -1.062300
      13A     -1.040618    14A     -0.955690    15A     -0.883720
      16A     -0.829748    17A     -0.789222    18A     -0.710757
      19A     -0.672740    20A     -0.651877    21A     -0.628948
      22A     -0.611729    23A     -0.596247    24A     -0.582328
      25A     -0.565042    26A     -0.538360    27A     -0.516987
      28A     -0.494465    29A     -0.486717    30A     -0.424354
      31A     -0.353920    32A     -0.331355

  @DF-RHF Final Energy:  -382.56635073268245

   => Energetics <=

    Nuclear Repulsion Energy =            399.5586434251187598
    One-Electron Energy =               -1310.3689020683702893
    Two-Electron Energy =                 528.2439079105690780
    Total Energy =                       -382.5663507326823947
  Basis Set: (AUG-CC-PVTZ AUX)
    Blend: AUG-CC-PVTZ-RI
    Molecular point group: c1

    Geometry (in Angstrom), charge = 0, multiplicity = 1:

       Center              X                  Y                   Z               Mass
    ------------   -----------------  -----------------  -----------------  -----------------
         O            2.765365432310    -0.841928074111    -0.000256543887    15.994914619570
         C           -0.388486567690     1.012844925889     0.000094456113    12.000000000000
         C            0.492901432310    -0.088498074111    -0.000056543887    12.000000000000
         C           -1.902506967690     0.792066225889     0.000219356113    12.000000000000
         C           -0.000007567690    -1.401034074111    -0.000110543887    12.000000000000
         C            0.095668432310     2.444286925889     0.000166456113    12.000000000000
         C           -2.255373567690    -0.558163074111     0.000149456113    12.000000000000
         C           -1.370251567690    -1.639185074111    -0.000005543887    12.000000000000
         C            1.964986432310     0.091363925889    -0.000170543887    12.000000000000
         H           -2.462450567690     1.582133925889     0.000321456113     1.007825032230
         H            0.717289432310    -2.217798074111    -0.000228543887     1.007825032230
         H            0.699865432310     2.672770925889    -0.883232543887     1.007825032230
         H           -0.759389567690     3.125266925889     0.000218456113     1.007825032230
         H            0.699893432310     2.672665925889     0.883574456113     1.007825032230
         H           -3.329306567690    -0.730313074111     0.000233456113     1.007825032230
         H           -1.748631567690    -2.658329074111    -0.000049543887     1.007825032230
         H            2.337871432310     1.132335925889    -0.000177543887     1.007825032230

  Basis Set: AUG-CC-PVTZ
    Blend: AUG-CC-PVTZ
  Basis Set: (AUG-CC-PVTZ AUX)
    Blend: AUG-CC-PVTZ-JKFIT
	 Reference Energy          =    -382.5663507326824515 [Eh]
	 Singles Energy            =      -0.0000000000000000 [Eh]
	 Same-Spin Energy          =      -0.4082047395488546 [Eh]
	 Opposite-Spin Energy      =      -1.2883225758505370 [Eh]
	 Correlation Energy        =      -1.6965273153993916 [Eh]
	 Total Energy              =    -384.2628780480818591 [Eh]

	 ================> DF-SCS-MP2 Energies <==================
	-----------------------------------------------------------
	 SCS Same-Spin Scale       =       0.3333333333333333 [-]
	 SCS Opposite-Spin Scale   =       1.2000000000000000 [-]
	 SCS Same-Spin Energy      =      -0.1360682465162849 [Eh]
	 SCS Opposite-Spin Energy  =      -1.5459870910206444 [Eh]
	 SCS Correlation Energy    =      -1.6820553375369292 [Eh]
	 SCS Total Energy          =    -384.2484060702194029 [Eh]
	-----------------------------------------------------------

  Dipole Moment: [D]
     X:    -2.6882      Y:     1.9552      Z:     0.0003     Total:     3.3240

*** Psi4 exiting successfully. Buy a developer a beer!
