                               Psi4 1.4a3.dev225

  ==> Input File <==

--------------------------------------------------------------------------
#psi4
#
memory 32 gb

molecule  {
0 1
  O        2.7820080    -0.8809860    -0.0002600
  C       -0.3718440     0.9737870     0.0000910
  C        0.5095440    -0.1275560    -0.0000600
  C       -1.7466600     0.7087270     0.0002000
  C        0.0166350    -1.4400920    -0.0001140
  C        0.1123110     2.4052290     0.0001630
  C       -2.2387310    -0.5972210     0.0001460
  C       -1.3536090    -1.6782430    -0.0000090
  C        1.9816290     0.0523060    -0.0001740
  H       -2.4458080     1.5430760     0.0003180
  H        0.7339320    -2.2568560    -0.0002320
  H        0.7165080     2.6337130    -0.8832360
  H       -0.7427470     3.0862090     0.0002150
  H        0.7165360     2.6336080     0.8835710
  H       -3.2632943    -0.7614571     0.0002261
  H       -1.7319890    -2.6973870    -0.0000530
  H        2.3545140     1.0932780    -0.0001810
units angstrom
no_reorient  #important for SAPT in psi4, default
symmetry c1  #important for SAPT in psi4, default
}

set PROPERTIES_ORIGIN ["COM"]
properties('MP2/aug-cc-pvtz', properties = ['dipole'])
--------------------------------------------------------------------------

    Molecular point group: c1
  Charge       = 0
  Multiplicity = 1
  Basis Set: AUG-CC-PVTZ
    Blend: AUG-CC-PVTZ
  Basis Set: (AUG-CC-PVTZ AUX)
    Blend: AUG-CC-PVTZ-JKFIT

    Orbital Energies [Eh]
    ---------------------

    Doubly Occupied:

       1A    -20.551994     2A    -11.334760     3A    -11.269820
       4A    -11.251972     5A    -11.251748     6A    -11.248584
       7A    -11.245242     8A    -11.243927     9A    -11.243618
      10A     -1.376728    11A     -1.171997    12A     -1.065869
      13A     -1.040609    14A     -0.955049    15A     -0.892336
      16A     -0.821995    17A     -0.788886    18A     -0.709819
      19A     -0.676085    20A     -0.648689    21A     -0.618538
      22A     -0.609854    23A     -0.597371    24A     -0.585439
      25A     -0.558898    26A     -0.538275    27A     -0.521778
      28A     -0.502232    29A     -0.491292    30A     -0.425419
      31A     -0.348808    32A     -0.342486

  @DF-RHF Final Energy:  -382.59348354716133

   => Energetics <=

    Nuclear Repulsion Energy =            402.2129115859042940
    One-Electron Energy =               -1315.7525549658016644
    Two-Electron Energy =                 530.9461598327360434
    Total Energy =                       -382.5934835471613269
  Basis Set: (AUG-CC-PVTZ AUX)
    Blend: AUG-CC-PVTZ-RI
    Molecular point group: c1

    Geometry (in Angstrom), charge = 0, multiplicity = 1:

       Center              X                  Y                   Z               Mass
    ------------   -----------------  -----------------  -----------------  -----------------
         O            2.751037226190    -0.837568498835    -0.000254921910    15.994914619570
         C           -0.402814773810     1.017204501165     0.000096078090    12.000000000000
         C            0.478573226190    -0.084138498835    -0.000054921910    12.000000000000
         C           -1.777630773810     0.752144501165     0.000205078090    12.000000000000
         C           -0.014335773810    -1.396674498835    -0.000108921910    12.000000000000
         C            0.081340226190     2.448646501165     0.000168078090    12.000000000000
         C           -2.269701773810    -0.553803498835     0.000151078090    12.000000000000
         C           -1.384579773810    -1.634825498835    -0.000003921910    12.000000000000
         C            1.950658226190     0.095723501165    -0.000168921910    12.000000000000
         H           -2.476778773810     1.586493501165     0.000323078090     1.007825032230
         H            0.702961226190    -2.213438498835    -0.000226921910     1.007825032230
         H            0.685537226190     2.677130501165    -0.883230921910     1.007825032230
         H           -0.773717773810     3.129626501165     0.000220078090     1.007825032230
         H            0.685565226190     2.677025501165     0.883576078090     1.007825032230
         H           -3.294265073810    -0.718039598835     0.000231178090     1.007825032230
         H           -1.762959773810    -2.653969498835    -0.000047921910     1.007825032230
         H            2.323543226190     1.136695501165    -0.000175921910     1.007825032230

  Basis Set: AUG-CC-PVTZ
    Blend: AUG-CC-PVTZ
  Basis Set: (AUG-CC-PVTZ AUX)
    Blend: AUG-CC-PVTZ-JKFIT
	 Reference Energy          =    -382.5934835471613269 [Eh]
	 Singles Energy            =      -0.0000000000000000 [Eh]
	 Same-Spin Energy          =      -0.4083826551908779 [Eh]
	 Opposite-Spin Energy      =      -1.2866965260207532 [Eh]
	 Correlation Energy        =      -1.6950791812116313 [Eh]
	 Total Energy              =    -384.2885627283729377 [Eh]

	 ================> DF-SCS-MP2 Energies <==================
	-----------------------------------------------------------
	 SCS Same-Spin Scale       =       0.3333333333333333 [-]
	 SCS Opposite-Spin Scale   =       1.2000000000000000 [-]
	 SCS Same-Spin Energy      =      -0.1361275517302926 [Eh]
	 SCS Opposite-Spin Energy  =      -1.5440358312249038 [Eh]
	 SCS Correlation Energy    =      -1.6801633829551965 [Eh]
	 SCS Total Energy          =    -384.2736469301165130 [Eh]
	-----------------------------------------------------------

  Dipole Moment: [D]
     X:    -2.7320      Y:     1.8825      Z:     0.0003     Total:     3.3177

*** Psi4 exiting successfully. Buy a developer a beer!
