                               Psi4 1.4a3.dev225

  ==> Input File <==

--------------------------------------------------------------------------
#psi4
#
memory 32 gb

molecule  {
0 1
  O        2.7820080    -0.8809860    -0.0002600
  C       -0.3718440     0.9737870     0.0000910
  C        0.5005834    -0.0244304    -0.0000570
  C       -1.7466600     0.7087270     0.0002000
  C        0.0166350    -1.4400920    -0.0001140
  C        0.1123110     2.4052290     0.0001630
  C       -2.2387310    -0.5972210     0.0001460
  C       -1.3536090    -1.6782430    -0.0000090
  C        1.9816290     0.0523060    -0.0001740
  H       -2.4458080     1.5430760     0.0003180
  H        0.7339320    -2.2568560    -0.0002320
  H        0.7165080     2.6337130    -0.8832360
  H       -0.7427470     3.0862090     0.0002150
  H        0.7165360     2.6336080     0.8835710
  H       -3.3126640    -0.7693710     0.0002300
  H       -1.7319890    -2.6973870    -0.0000530
  H        2.3545140     1.0932780    -0.0001810
units angstrom
no_reorient  #important for SAPT in psi4, default
symmetry c1  #important for SAPT in psi4, default
}

set PROPERTIES_ORIGIN ["COM"]
properties('MP2/aug-cc-pvtz', properties = ['dipole'])
--------------------------------------------------------------------------

    Molecular point group: c1
  Charge       = 0
  Multiplicity = 1
  Basis Set: AUG-CC-PVTZ
    Blend: AUG-CC-PVTZ
  Basis Set: (AUG-CC-PVTZ AUX)
    Blend: AUG-CC-PVTZ-JKFIT

    Orbital Energies [Eh]
    ---------------------

    Doubly Occupied:

       1A    -20.554999     2A    -11.336932     3A    -11.262701
       4A    -11.260199     5A    -11.259193     6A    -11.248811
       7A    -11.246527     8A    -11.244249     9A    -11.241756
      10A     -1.377674    11A     -1.176121    12A     -1.073108
      13A     -1.030076    14A     -0.956144    15A     -0.891894
      16A     -0.830090    17A     -0.783410    18A     -0.705288
      19A     -0.679636    20A     -0.644880    21A     -0.617848
      22A     -0.606676    23A     -0.599569    24A     -0.587549
      25A     -0.554611    26A     -0.537866    27A     -0.522902
      28A     -0.498878    29A     -0.491944    30A     -0.421946
      31A     -0.357885    32A     -0.337984

  @DF-RHF Final Energy:  -382.58040073854062

   => Energetics <=

    Nuclear Repulsion Energy =            402.0736585215198602
    One-Electron Energy =               -1315.4294242449384456
    Two-Electron Energy =                 530.7753649848780242
    Total Energy =                       -382.5804007385405612
  Basis Set: (AUG-CC-PVTZ AUX)
    Blend: AUG-CC-PVTZ-RI
    Molecular point group: c1

    Geometry (in Angstrom), charge = 0, multiplicity = 1:

       Center              X                  Y                   Z               Mass
    ------------   -----------------  -----------------  -----------------  -----------------
         O            2.752347291783    -0.847809685109    -0.000255254505    15.994914619570
         C           -0.401504708217     1.006963314891     0.000095745495    12.000000000000
         C            0.470922691783     0.008745914891    -0.000052254505    12.000000000000
         C           -1.776320708217     0.741903314891     0.000204745495    12.000000000000
         C           -0.013025708217    -1.406915685109    -0.000109254505    12.000000000000
         C            0.082650291783     2.438405314891     0.000167745495    12.000000000000
         C           -2.268391708217    -0.564044685109     0.000150745495    12.000000000000
         C           -1.383269708217    -1.645066685109    -0.000004254505    12.000000000000
         C            1.951968291783     0.085482314891    -0.000169254505    12.000000000000
         H           -2.475468708217     1.576252314891     0.000322745495     1.007825032230
         H            0.704271291783    -2.223679685109    -0.000227254505     1.007825032230
         H            0.686847291783     2.666889314891    -0.883231254505     1.007825032230
         H           -0.772407708217     3.119385314891     0.000219745495     1.007825032230
         H            0.686875291783     2.666784314891     0.883575745495     1.007825032230
         H           -3.342324708217    -0.736194685109     0.000234745495     1.007825032230
         H           -1.761649708217    -2.664210685109    -0.000048254505     1.007825032230
         H            2.324853291783     1.126454314891    -0.000176254505     1.007825032230

  Basis Set: AUG-CC-PVTZ
    Blend: AUG-CC-PVTZ
  Basis Set: (AUG-CC-PVTZ AUX)
    Blend: AUG-CC-PVTZ-JKFIT
	 Reference Energy          =    -382.5804007385406180 [Eh]
	 Singles Energy            =      -0.0000000000000000 [Eh]
	 Same-Spin Energy          =      -0.4082942466461017 [Eh]
	 Opposite-Spin Energy      =      -1.2877358342940810 [Eh]
	 Correlation Energy        =      -1.6960300809401827 [Eh]
	 Total Energy              =    -384.2764308194808223 [Eh]

	 ================> DF-SCS-MP2 Energies <==================
	-----------------------------------------------------------
	 SCS Same-Spin Scale       =       0.3333333333333333 [-]
	 SCS Opposite-Spin Scale   =       1.2000000000000000 [-]
	 SCS Same-Spin Energy      =      -0.1360980822153672 [Eh]
	 SCS Opposite-Spin Energy  =      -1.5452830011528971 [Eh]
	 SCS Correlation Energy    =      -1.6813810833682643 [Eh]
	 SCS Total Energy          =    -384.2617818219088690 [Eh]
	-----------------------------------------------------------

  Dipole Moment: [D]
     X:    -2.7842      Y:     1.8159      Z:     0.0003     Total:     3.3240

*** Psi4 exiting successfully. Buy a developer a beer!
