                               Psi4 1.4a3.dev225

  ==> Input File <==

--------------------------------------------------------------------------
#psi4
#
memory 32 gb

molecule  {
0 1
  O        2.7820080    -0.8809860    -0.0002600
  C       -0.3718440     0.9737870     0.0000910
  C        0.5095440    -0.1275560    -0.0000600
  C       -1.7114223     0.5664716     0.0001849
  C        0.0166350    -1.4400920    -0.0001140
  C        0.1123110     2.4052290     0.0001630
  C       -2.2387310    -0.5972210     0.0001460
  C       -1.3536090    -1.6782430    -0.0000090
  C        1.9816290     0.0523060    -0.0001740
  H       -2.4458080     1.5430760     0.0003180
  H        0.7339320    -2.2568560    -0.0002320
  H        0.7165080     2.6337130    -0.8832360
  H       -0.7427470     3.0862090     0.0002150
  H        0.7165360     2.6336080     0.8835710
  H       -3.3126640    -0.7693710     0.0002300
  H       -1.7319890    -2.6973870    -0.0000530
  H        2.3545140     1.0932780    -0.0001810
units angstrom
no_reorient  #important for SAPT in psi4, default
symmetry c1  #important for SAPT in psi4, default
}

set PROPERTIES_ORIGIN ["COM"]
properties('MP2/aug-cc-pvtz', properties = ['dipole'])
--------------------------------------------------------------------------

    Molecular point group: c1
  Charge       = 0
  Multiplicity = 1
  Basis Set: AUG-CC-PVTZ
    Blend: AUG-CC-PVTZ
  Basis Set: (AUG-CC-PVTZ AUX)
    Blend: AUG-CC-PVTZ-JKFIT

    Orbital Energies [Eh]
    ---------------------

    Doubly Occupied:

       1A    -20.553949     2A    -11.334968     3A    -11.271926
       4A    -11.249783     5A    -11.248532     6A    -11.247016
       7A    -11.245091     8A    -11.244008     9A    -11.240942
      10A     -1.378135    11A     -1.185097    12A     -1.073620
      13A     -1.043410    14A     -0.959276    15A     -0.892734
      16A     -0.826332    17A     -0.778604    18A     -0.713010
      19A     -0.675906    20A     -0.648821    21A     -0.618665
      22A     -0.601931    23A     -0.600931    24A     -0.581842
      25A     -0.553060    26A     -0.541035    27A     -0.531967
      28A     -0.502326    29A     -0.475523    30A     -0.425009
      31A     -0.361790    32A     -0.338772

  @DF-RHF Final Energy:  -382.56533779162032

   => Energetics <=

    Nuclear Repulsion Energy =            403.9941484825924363
    One-Electron Energy =               -1319.2309481043866981
    Two-Electron Energy =                 532.6714618301739392
    Total Energy =                       -382.5653377916203226
  Basis Set: (AUG-CC-PVTZ AUX)
    Blend: AUG-CC-PVTZ-RI
    Molecular point group: c1

    Geometry (in Angstrom), charge = 0, multiplicity = 1:

       Center              X                  Y                   Z               Mass
    ------------   -----------------  -----------------  -----------------  -----------------
         O            2.747929579152    -0.823283340357    -0.000253445372    15.994914619570
         C           -0.405922420848     1.031489659643     0.000097554628    12.000000000000
         C            0.475465579152    -0.069853340357    -0.000053445372    12.000000000000
         C           -1.745500720848     0.624174259643     0.000191454628    12.000000000000
         C           -0.017443420848    -1.382389340357    -0.000107445372    12.000000000000
         C            0.078232579152     2.462931659643     0.000169554628    12.000000000000
         C           -2.272809420848    -0.539518340357     0.000152554628    12.000000000000
         C           -1.387687420848    -1.620540340357    -0.000002445372    12.000000000000
         C            1.947550579152     0.110008659643    -0.000167445372    12.000000000000
         H           -2.479886420848     1.600778659643     0.000324554628     1.007825032230
         H            0.699853579152    -2.199153340357    -0.000225445372     1.007825032230
         H            0.682429579152     2.691415659643    -0.883229445372     1.007825032230
         H           -0.776825420848     3.143911659643     0.000221554628     1.007825032230
         H            0.682457579152     2.691310659643     0.883577554628     1.007825032230
         H           -3.346742420848    -0.711668340357     0.000236554628     1.007825032230
         H           -1.766067420848    -2.639684340357    -0.000046445372     1.007825032230
         H            2.320435579152     1.150980659643    -0.000174445372     1.007825032230

  Basis Set: AUG-CC-PVTZ
    Blend: AUG-CC-PVTZ
  Basis Set: (AUG-CC-PVTZ AUX)
    Blend: AUG-CC-PVTZ-JKFIT
	 Reference Energy          =    -382.5653377916203226 [Eh]
	 Singles Energy            =      -0.0000000000000000 [Eh]
	 Same-Spin Energy          =      -0.4091901284792377 [Eh]
	 Opposite-Spin Energy      =      -1.2881835505528039 [Eh]
	 Correlation Energy        =      -1.6973736790320415 [Eh]
	 Total Energy              =    -384.2627114706523912 [Eh]

	 ================> DF-SCS-MP2 Energies <==================
	-----------------------------------------------------------
	 SCS Same-Spin Scale       =       0.3333333333333333 [-]
	 SCS Opposite-Spin Scale   =       1.2000000000000000 [-]
	 SCS Same-Spin Energy      =      -0.1363967094930792 [Eh]
	 SCS Opposite-Spin Energy  =      -1.5458202606633646 [Eh]
	 SCS Correlation Energy    =      -1.6822169701564438 [Eh]
	 SCS Total Energy          =    -384.2475547617767688 [Eh]
	-----------------------------------------------------------

  Dipole Moment: [D]
     X:    -2.5853      Y:     1.8558      Z:     0.0003     Total:     3.1824

*** Psi4 exiting successfully. Buy a developer a beer!
