                               Psi4 1.4a3.dev225

  ==> Input File <==

--------------------------------------------------------------------------
#psi4
#
memory 32 gb

molecule  {
0 1
  O        2.7820080    -0.8809860    -0.0002600
  C       -0.3718440     0.9737870     0.0000910
  C        0.5095440    -0.1275560    -0.0000600
  C       -1.7466600     0.7087270     0.0002000
  C        0.0166350    -1.4400920    -0.0001140
  C        0.1123110     2.4052290     0.0001630
  C       -2.2387310    -0.5972210     0.0001460
  C       -1.3536090    -1.6782430    -0.0000090
  C        1.9816290     0.0523060    -0.0001740
  H       -2.4458080     1.5430760     0.0003180
  H        0.7339320    -2.2568560    -0.0002320
  H        0.7165080     2.6337130    -0.8832360
  H       -0.7427470     3.0862090     0.0002150
  H        0.7165360     2.6336080     0.8835710
  H       -3.3126640    -0.7693710     0.0002300
  H       -1.7319890    -2.6973870    -0.0000530
  H        2.3207914     0.9991356    -0.0001804
units angstrom
no_reorient  #important for SAPT in psi4, default
symmetry c1  #important for SAPT in psi4, default
}

set PROPERTIES_ORIGIN ["COM"]
properties('MP2/aug-cc-pvtz', properties = ['dipole'])
--------------------------------------------------------------------------

    Molecular point group: c1
  Charge       = 0
  Multiplicity = 1
  Basis Set: AUG-CC-PVTZ
    Blend: AUG-CC-PVTZ
  Basis Set: (AUG-CC-PVTZ AUX)
    Blend: AUG-CC-PVTZ-JKFIT

    Orbital Energies [Eh]
    ---------------------

    Doubly Occupied:

       1A    -20.550369     2A    -11.323257     3A    -11.269677
       4A    -11.257055     5A    -11.251342     6A    -11.247151
       7A    -11.245356     8A    -11.244228     9A    -11.243864
      10A     -1.376067    11A     -1.171533    12A     -1.065488
      13A     -1.039608    14A     -0.955610    15A     -0.898933
      16A     -0.821290    17A     -0.799614    18A     -0.713688
      19A     -0.674566    20A     -0.645556    21A     -0.621419
      22A     -0.609843    23A     -0.597833    24A     -0.585438
      25A     -0.558593    26A     -0.537479    27A     -0.518409
      28A     -0.502089    29A     -0.490792    30A     -0.429215
      31A     -0.348191    32A     -0.342379

  @DF-RHF Final Energy:  -382.58964483216016

   => Energetics <=

    Nuclear Repulsion Energy =            402.4415201677297773
    One-Electron Energy =               -1316.1904687181292957
    Two-Electron Energy =                 531.1593037182393573
    Total Energy =                       -382.5896448321601611
  Basis Set: (AUG-CC-PVTZ AUX)
    Blend: AUG-CC-PVTZ-RI
    Molecular point group: c1

    Geometry (in Angstrom), charge = 0, multiplicity = 1:

       Center              X                  Y                   Z               Mass
    ------------   -----------------  -----------------  -----------------  -----------------
         O            2.751734746041    -0.836711785335    -0.000254959685    15.994914619570
         C           -0.402117253959     1.018061214665     0.000096040315    12.000000000000
         C            0.479270746041    -0.083281785335    -0.000054959685    12.000000000000
         C           -1.776933253959     0.753001214665     0.000205040315    12.000000000000
         C           -0.013638253959    -1.395817785335    -0.000108959685    12.000000000000
         C            0.082037746041     2.449503214665     0.000168040315    12.000000000000
         C           -2.269004253959    -0.552946785335     0.000151040315    12.000000000000
         C           -1.383882253959    -1.633968785335    -0.000003959685    12.000000000000
         C            1.951355746041     0.096580214665    -0.000168959685    12.000000000000
         H           -2.476081253959     1.587350214665     0.000323040315     1.007825032230
         H            0.703658746041    -2.212581785335    -0.000226959685     1.007825032230
         H            0.686234746041     2.677987214665    -0.883230959685     1.007825032230
         H           -0.773020253959     3.130483214665     0.000220040315     1.007825032230
         H            0.686262746041     2.677882214665     0.883576040315     1.007825032230
         H           -3.342937253959    -0.725096785335     0.000235040315     1.007825032230
         H           -1.762262253959    -2.653112785335    -0.000047959685     1.007825032230
         H            2.290518146041     1.043409814665    -0.000175359685     1.007825032230

  Basis Set: AUG-CC-PVTZ
    Blend: AUG-CC-PVTZ
  Basis Set: (AUG-CC-PVTZ AUX)
    Blend: AUG-CC-PVTZ-JKFIT
	 Reference Energy          =    -382.5896448321601611 [Eh]
	 Singles Energy            =      -0.0000000000000000 [Eh]
	 Same-Spin Energy          =      -0.4080672825833644 [Eh]
	 Opposite-Spin Energy      =      -1.2862204401268307 [Eh]
	 Correlation Energy        =      -1.6942877227101951 [Eh]
	 Total Energy              =    -384.2839325548703755 [Eh]

	 ================> DF-SCS-MP2 Energies <==================
	-----------------------------------------------------------
	 SCS Same-Spin Scale       =       0.3333333333333333 [-]
	 SCS Opposite-Spin Scale   =       1.2000000000000000 [-]
	 SCS Same-Spin Energy      =      -0.1360224275277881 [Eh]
	 SCS Opposite-Spin Energy  =      -1.5434645281521968 [Eh]
	 SCS Correlation Energy    =      -1.6794869556799850 [Eh]
	 SCS Total Energy          =    -384.2691317878401378 [Eh]
	-----------------------------------------------------------

  Dipole Moment: [D]
     X:    -2.6807      Y:     1.9657      Z:     0.0003     Total:     3.3242

*** Psi4 exiting successfully. Buy a developer a beer!
