                               Psi4 1.4a3.dev225

  ==> Input File <==

--------------------------------------------------------------------------
#psi4
#
memory 32 gb

molecule  {
0 1
  O        2.7820080    -0.8809860    -0.0002600
  C       -0.3718440     0.9737870     0.0000910
  C        0.5095440    -0.1275560    -0.0000600
  C       -1.7466600     0.7087270     0.0002000
  C        0.0166350    -1.4400920    -0.0001140
  C        0.1123110     2.4052290     0.0001630
  C       -2.2387310    -0.5972210     0.0001460
  C       -1.3536090    -1.6782430    -0.0000090
  C        1.9816290     0.0523060    -0.0001740
  H       -2.4458080     1.5430760     0.0003180
  H        0.7339320    -2.2568560    -0.0002320
  H        0.7165080     2.6337130    -0.8832360
  H       -0.5862999     2.9616124     0.0002055
  H        0.7165360     2.6336080     0.8835710
  H       -3.3126640    -0.7693710     0.0002300
  H       -1.7319890    -2.6973870    -0.0000530
  H        2.3545140     1.0932780    -0.0001810
units angstrom
no_reorient  #important for SAPT in psi4, default
symmetry c1  #important for SAPT in psi4, default
}

set PROPERTIES_ORIGIN ["COM"]
properties('MP2/aug-cc-pvtz', properties = ['dipole'])
--------------------------------------------------------------------------

    Molecular point group: c1
  Charge       = 0
  Multiplicity = 1
  Basis Set: AUG-CC-PVTZ
    Blend: AUG-CC-PVTZ
  Basis Set: (AUG-CC-PVTZ AUX)
    Blend: AUG-CC-PVTZ-JKFIT

    Orbital Energies [Eh]
    ---------------------

    Doubly Occupied:

       1A    -20.551308     2A    -11.333964     3A    -11.268907
       4A    -11.257495     5A    -11.251738     6A    -11.247622
       7A    -11.245619     8A    -11.243924     9A    -11.219612
      10A     -1.376076    11A     -1.172241    12A     -1.071903
      13A     -1.040565    14A     -0.972351    15A     -0.889455
      16A     -0.826794    17A     -0.786806    18A     -0.708174
      19A     -0.681156    20A     -0.644447    21A     -0.624084
      22A     -0.608939    23A     -0.596067    24A     -0.589861
      25A     -0.583482    26A     -0.537576    27A     -0.519092
      28A     -0.502501    29A     -0.491049    30A     -0.424873
      31A     -0.348580    32A     -0.342224

  @DF-RHF Final Energy:  -382.56047405125616

   => Energetics <=

    Nuclear Repulsion Energy =            402.9663789266529648
    One-Electron Energy =               -1317.1367374574997484
    Two-Electron Energy =                 531.6098844795906189
    Total Energy =                       -382.5604740512561648
  Basis Set: (AUG-CC-PVTZ AUX)
    Blend: AUG-CC-PVTZ-RI
    Molecular point group: c1

    Geometry (in Angstrom), charge = 0, multiplicity = 1:

       Center              X                  Y                   Z               Mass
    ------------   -----------------  -----------------  -----------------  -----------------
         O            2.750138362972    -0.836456136989    -0.000254874900    15.994914619570
         C           -0.403713637028     1.018316863011     0.000096125100    12.000000000000
         C            0.477674362972    -0.083026136989    -0.000054874900    12.000000000000
         C           -1.778529637028     0.753256863011     0.000205125100    12.000000000000
         C           -0.015234637028    -1.395562136989    -0.000108874900    12.000000000000
         C            0.080441362972     2.449758863011     0.000168125100    12.000000000000
         C           -2.270600637028    -0.552691136989     0.000151125100    12.000000000000
         C           -1.385478637028    -1.633713136989    -0.000003874900    12.000000000000
         C            1.949759362972     0.096835863011    -0.000168874900    12.000000000000
         H           -2.477677637028     1.587605863011     0.000323125100     1.007825032230
         H            0.702062362972    -2.212326136989    -0.000226874900     1.007825032230
         H            0.684638362972     2.678242863011    -0.883230874900     1.007825032230
         H           -0.618169537028     3.006142263011     0.000210625100     1.007825032230
         H            0.684666362972     2.678137863011     0.883576125100     1.007825032230
         H           -3.344533637028    -0.724841136989     0.000235125100     1.007825032230
         H           -1.763858637028    -2.652857136989    -0.000047874900     1.007825032230
         H            2.322644362972     1.137807863011    -0.000175874900     1.007825032230

  Basis Set: AUG-CC-PVTZ
    Blend: AUG-CC-PVTZ
  Basis Set: (AUG-CC-PVTZ AUX)
    Blend: AUG-CC-PVTZ-JKFIT
	 Reference Energy          =    -382.5604740512561648 [Eh]
	 Singles Energy            =      -0.0000000000000000 [Eh]
	 Same-Spin Energy          =      -0.4084467127356645 [Eh]
	 Opposite-Spin Energy      =      -1.2861022033612344 [Eh]
	 Correlation Energy        =      -1.6945489160968989 [Eh]
	 Total Energy              =    -384.2550229673530566 [Eh]

	 ================> DF-SCS-MP2 Energies <==================
	-----------------------------------------------------------
	 SCS Same-Spin Scale       =       0.3333333333333333 [-]
	 SCS Opposite-Spin Scale   =       1.2000000000000000 [-]
	 SCS Same-Spin Energy      =      -0.1361489042452215 [Eh]
	 SCS Opposite-Spin Energy  =      -1.5433226440334813 [Eh]
	 SCS Correlation Energy    =      -1.6794715482787028 [Eh]
	 SCS Total Energy          =    -384.2399455995348490 [Eh]
	-----------------------------------------------------------

  Dipole Moment: [D]
     X:    -2.7506      Y:     1.9661      Z:     0.0003     Total:     3.3810

*** Psi4 exiting successfully. Buy a developer a beer!
