                               Psi4 1.4a3.dev225

  ==> Input File <==

--------------------------------------------------------------------------
#psi4
#
memory 32 gb

molecule  {
0 1
  O        2.7820080    -0.8809860    -0.0002600
  C       -0.3718440     0.9737870     0.0000910
  C        0.5095440    -0.1275560    -0.0000600
  C       -1.7466600     0.7087270     0.0002000
  C        0.0166350    -1.4400920    -0.0001140
  C        0.1123110     2.4052290     0.0001630
  C       -2.2387310    -0.5972210     0.0001460
  C       -1.3536090    -1.6782430    -0.0000090
  C        1.9816290     0.0523060    -0.0001740
  H       -2.4458080     1.5430760     0.0003180
  H        0.7669257    -2.2944249    -0.0002374
  H        0.7165080     2.6337130    -0.8832360
  H       -0.7427470     3.0862090     0.0002150
  H        0.7165360     2.6336080     0.8835710
  H       -3.3126640    -0.7693710     0.0002300
  H       -1.7319890    -2.6973870    -0.0000530
  H        2.3545140     1.0932780    -0.0001810
units angstrom
no_reorient  #important for SAPT in psi4, default
symmetry c1  #important for SAPT in psi4, default
}

set PROPERTIES_ORIGIN ["COM"]
properties('MP2/aug-cc-pvtz', properties = ['dipole'])
--------------------------------------------------------------------------

    Molecular point group: c1
  Charge       = 0
  Multiplicity = 1
  Basis Set: AUG-CC-PVTZ
    Blend: AUG-CC-PVTZ
  Basis Set: (AUG-CC-PVTZ AUX)
    Blend: AUG-CC-PVTZ-JKFIT

    Orbital Energies [Eh]
    ---------------------

    Doubly Occupied:

       1A    -20.552027     2A    -11.334875     3A    -11.270319
       4A    -11.257744     5A    -11.257297     6A    -11.249090
       7A    -11.245668     8A    -11.244563     9A    -11.243895
      10A     -1.376767    11A     -1.171875    12A     -1.065256
      13A     -1.038803    14A     -0.955142    15A     -0.889180
      16A     -0.819344    17A     -0.786907    18A     -0.708152
      19A     -0.671711    20A     -0.642923    21A     -0.617618
      22A     -0.606911    23A     -0.597629    24A     -0.584479
      25A     -0.558621    26A     -0.538418    27A     -0.518053
      28A     -0.499745    29A     -0.491604    30A     -0.425451
      31A     -0.349058    32A     -0.342824

  @DF-RHF Final Energy:  -382.59164776607861

   => Energetics <=

    Nuclear Repulsion Energy =            401.7149371983141464
    One-Electron Energy =               -1314.7892711190056616
    Two-Electron Energy =                 530.4826861546129066
    Total Energy =                       -382.5916477660786086
  Basis Set: (AUG-CC-PVTZ AUX)
    Blend: AUG-CC-PVTZ-RI
    Molecular point group: c1

    Geometry (in Angstrom), charge = 0, multiplicity = 1:

       Center              X                  Y                   Z               Mass
    ------------   -----------------  -----------------  -----------------  -----------------
         O            2.751174694825    -0.837186692628    -0.000254909318    15.994914619570
         C           -0.402677305175     1.017586307372     0.000096090682    12.000000000000
         C            0.478710694825    -0.083756692628    -0.000054909318    12.000000000000
         C           -1.777493305175     0.752526307372     0.000205090682    12.000000000000
         C           -0.014198305175    -1.396292692628    -0.000108909318    12.000000000000
         C            0.081477694825     2.449028307372     0.000168090682    12.000000000000
         C           -2.269564305175    -0.553421692628     0.000151090682    12.000000000000
         C           -1.384442305175    -1.634443692628    -0.000003909318    12.000000000000
         C            1.950795694825     0.096105307372    -0.000168909318    12.000000000000
         H           -2.476641305175     1.586875307372     0.000323090682     1.007825032230
         H            0.736092394825    -2.250625592628    -0.000232309318     1.007825032230
         H            0.685674694825     2.677512307372    -0.883230909318     1.007825032230
         H           -0.773580305175     3.130008307372     0.000220090682     1.007825032230
         H            0.685702694825     2.677407307372     0.883576090682     1.007825032230
         H           -3.343497305175    -0.725571692628     0.000235090682     1.007825032230
         H           -1.762822305175    -2.653587692628    -0.000047909318     1.007825032230
         H            2.323680694825     1.137077307372    -0.000175909318     1.007825032230

  Basis Set: AUG-CC-PVTZ
    Blend: AUG-CC-PVTZ
  Basis Set: (AUG-CC-PVTZ AUX)
    Blend: AUG-CC-PVTZ-JKFIT
	 Reference Energy          =    -382.5916477660786086 [Eh]
	 Singles Energy            =      -0.0000000000000000 [Eh]
	 Same-Spin Energy          =      -0.4086549603918784 [Eh]
	 Opposite-Spin Energy      =      -1.2874980841381372 [Eh]
	 Correlation Energy        =      -1.6961530445300155 [Eh]
	 Total Energy              =    -384.2878008106086440 [Eh]

	 ================> DF-SCS-MP2 Energies <==================
	-----------------------------------------------------------
	 SCS Same-Spin Scale       =       0.3333333333333333 [-]
	 SCS Opposite-Spin Scale   =       1.2000000000000000 [-]
	 SCS Same-Spin Energy      =      -0.1362183201306261 [Eh]
	 SCS Opposite-Spin Energy  =      -1.5449977009657645 [Eh]
	 SCS Correlation Energy    =      -1.6812160210963907 [Eh]
	 SCS Total Energy          =    -384.2728637871750266 [Eh]
	-----------------------------------------------------------

  Dipole Moment: [D]
     X:    -2.7105      Y:     1.8908      Z:     0.0003     Total:     3.3048

*** Psi4 exiting successfully. Buy a developer a beer!
