                               Psi4 1.4a3.dev225

  ==> Input File <==

--------------------------------------------------------------------------
#psi4
#
memory 32 gb

molecule  {
0 1
  O        2.7820080    -0.8809860    -0.0002600
  C       -0.3718440     0.9737870     0.0000910
  C        0.5095440    -0.1275560    -0.0000600
  C       -1.7466600     0.7087270     0.0002000
  C        0.0166350    -1.4400920    -0.0001140
  C        0.1123110     2.4052290     0.0001630
  C       -2.2316791    -0.5785055     0.0001468
  C       -1.3536090    -1.6782430    -0.0000090
  C        1.9816290     0.0523060    -0.0001740
  H       -2.4458080     1.5430760     0.0003180
  H        0.7339320    -2.2568560    -0.0002320
  H        0.7165080     2.6337130    -0.8832360
  H       -0.7427470     3.0862090     0.0002150
  H        0.7165360     2.6336080     0.8835710
  H       -3.3126640    -0.7693710     0.0002300
  H       -1.7319890    -2.6973870    -0.0000530
  H        2.3545140     1.0932780    -0.0001810
units angstrom
no_reorient  #important for SAPT in psi4, default
symmetry c1  #important for SAPT in psi4, default
}

set PROPERTIES_ORIGIN ["COM"]
properties('MP2/aug-cc-pvtz', properties = ['dipole'])
--------------------------------------------------------------------------

    Molecular point group: c1
  Charge       = 0
  Multiplicity = 1
  Basis Set: AUG-CC-PVTZ
    Blend: AUG-CC-PVTZ
  Basis Set: (AUG-CC-PVTZ AUX)
    Blend: AUG-CC-PVTZ-JKFIT

    Orbital Energies [Eh]
    ---------------------

    Doubly Occupied:

       1A    -20.552023     2A    -11.334798     3A    -11.270728
       4A    -11.257168     5A    -11.251635     6A    -11.248503
       7A    -11.244993     8A    -11.244028     9A    -11.243727
      10A     -1.376770    11A     -1.173006    12A     -1.064394
      13A     -1.041864    14A     -0.956006    15A     -0.888582
      16A     -0.822712    17A     -0.786564    18A     -0.708839
      19A     -0.672817    20A     -0.644428    21A     -0.619613
      22A     -0.609206    23A     -0.597863    24A     -0.586058
      25A     -0.558021    26A     -0.538461    27A     -0.517883
      28A     -0.502364    29A     -0.492184    30A     -0.425460
      31A     -0.351189    32A     -0.341385

  @DF-RHF Final Energy:  -382.59389618266277

   => Energetics <=

    Nuclear Repulsion Energy =            402.1600975201114352
    One-Electron Energy =               -1315.6614458665990242
    Two-Electron Energy =                 530.9074521638248143
    Total Energy =                       -382.5938961826627747
  Basis Set: (AUG-CC-PVTZ AUX)
    Blend: AUG-CC-PVTZ-RI
    Molecular point group: c1

    Geometry (in Angstrom), charge = 0, multiplicity = 1:

       Center              X                  Y                   Z               Mass
    ------------   -----------------  -----------------  -----------------  -----------------
         O            2.750746808880    -0.839372718868    -0.000255034610    15.994914619570
         C           -0.403105191120     1.015400281132     0.000095965390    12.000000000000
         C            0.478282808880    -0.085942718868    -0.000055034610    12.000000000000
         C           -1.777921191120     0.750340281132     0.000204965390    12.000000000000
         C           -0.014626191120    -1.398478718868    -0.000109034610    12.000000000000
         C            0.081049808880     2.446842281132     0.000167965390    12.000000000000
         C           -2.262940291120    -0.536892218868     0.000151765390    12.000000000000
         C           -1.384870191120    -1.636629718868    -0.000004034610    12.000000000000
         C            1.950367808880     0.093919281132    -0.000169034610    12.000000000000
         H           -2.477069191120     1.584689281132     0.000322965390     1.007825032230
         H            0.702670808880    -2.215242718868    -0.000227034610     1.007825032230
         H            0.685246808880     2.675326281132    -0.883231034610     1.007825032230
         H           -0.774008191120     3.127822281132     0.000219965390     1.007825032230
         H            0.685274808880     2.675221281132     0.883575965390     1.007825032230
         H           -3.343925191120    -0.727757718868     0.000234965390     1.007825032230
         H           -1.763250191120    -2.655773718868    -0.000048034610     1.007825032230
         H            2.323252808880     1.134891281132    -0.000176034610     1.007825032230

  Basis Set: AUG-CC-PVTZ
    Blend: AUG-CC-PVTZ
  Basis Set: (AUG-CC-PVTZ AUX)
    Blend: AUG-CC-PVTZ-JKFIT
	 Reference Energy          =    -382.5938961826627747 [Eh]
	 Singles Energy            =      -0.0000000000000000 [Eh]
	 Same-Spin Energy          =      -0.4084458556824480 [Eh]
	 Opposite-Spin Energy      =      -1.2869641014618165 [Eh]
	 Correlation Energy        =      -1.6954099571442645 [Eh]
	 Total Energy              =    -384.2893061398070245 [Eh]

	 ================> DF-SCS-MP2 Energies <==================
	-----------------------------------------------------------
	 SCS Same-Spin Scale       =       0.3333333333333333 [-]
	 SCS Opposite-Spin Scale   =       1.2000000000000000 [-]
	 SCS Same-Spin Energy      =      -0.1361486185608160 [Eh]
	 SCS Opposite-Spin Energy  =      -1.5443569217541797 [Eh]
	 SCS Correlation Energy    =      -1.6805055403149958 [Eh]
	 SCS Total Energy          =    -384.2744017229777569 [Eh]
	-----------------------------------------------------------

  Dipole Moment: [D]
     X:    -2.7146      Y:     1.8873      Z:     0.0003     Total:     3.3062

*** Psi4 exiting successfully. Buy a developer a beer!
